 ----------------------------------------------------
    OOO  PPPP  EEEEE N   N M   M PPPP
   O   O P   P E     NN  N MM MM P   P
   O   O PPPP  EEEEE N N N M M M PPPP   -- VERSION
   O   O P     E     N  NN M   M P
    OOO  P     EEEEE N   N M   M P
 ----------------------------------------------------
 running   32 mpi-ranks, with    4 threads/rank
 distrk:  each k-point on   32 cores,    1 groups
 distr:  one band on    1 cores,   32 groups
 vasp.6.3.0 20Jan22 (build Mar 23 2022 14:45:45) complex                         
 POSCAR found type information on POSCAR SrV O 
 POSCAR found :  3 types and       5 ions
 Reading from existing POTCAR
 scaLAPACK will be used
 Reading from existing POTCAR
 LDA part: xc-table for Pade appr. of Perdew
 found WAVECAR, reading the header
  number of bands has changed, file:   128 present:   512
  trying to continue reading WAVECAR, but it might fail
 POSCAR, INCAR and KPOINTS ok, starting setup
 FFT: planning ... GRIDC
 FFT: planning ... GRID_SOFT
 FFT: planning ... GRID
 reading WAVECAR
 random initialization beyond band          128
 the WAVECAR file was read successfully
 initial charge from wavefunction
 entering main loop
       N       E                     dE             d eps       ncg     rms          rms(c)
DAV:   1    -0.391875342810E+02   -0.39188E+02   -0.76578E-13 25728   0.854E-07    0.329E-07
DAV:   2    -0.391875342809E+02    0.87766E-10   -0.19132E-12 28192   0.364E-07    0.275E-07
DAV:   3    -0.391875342808E+02    0.10141E-09   -0.13349E-12 28160   0.516E-08    0.826E-08
DAV:   4    -0.391875342810E+02   -0.21919E-09   -0.86712E-13 27744   0.315E-08    0.319E-08
DAV:   5    -0.391875342812E+02   -0.14825E-09   -0.12596E-12 27808   0.840E-08    0.155E-08
DAV:   6    -0.391875342813E+02   -0.90040E-10    0.51363E-12 30560   0.482E-09    0.327E-09
DAV:   7    -0.391875342810E+02    0.23010E-09   -0.28087E-12 33472   0.976E-09    0.629E-10
DAV:   8    -0.391875342815E+02   -0.47930E-09   -0.50587E-12 35520   0.555E-09    0.832E-10
DAV:   9    -0.391875342809E+02    0.56889E-09   -0.23872E-12 36544   0.944E-09    0.589E-10
DAV:  10    -0.391875342808E+02    0.11414E-09   -0.50275E-12 38112   0.852E-09    0.547E-10
DAV:  11    -0.391875342813E+02   -0.48340E-09    0.26203E-12 39232   0.982E-09    0.417E-10
DAV:  12    -0.391875342809E+02    0.44429E-09   -0.16275E-12 40288   0.901E-09    0.356E-10
DAV:  13    -0.391875342811E+02   -0.25557E-09    0.36904E-12 40352   0.971E-09    0.159E-09
DAV:  14    -0.391875342811E+02    0.51386E-10   -0.11347E-11 40800   0.983E-09
   1 F= -.39187534E+02 E0= -.39187370E+02  d E =-.327692E-03
 writing wavefunctions
 ----------------------------------------------------
    OOO  PPPP  EEEEE N   N M   M PPPP
   O   O P   P E     NN  N MM MM P   P
   O   O PPPP  EEEEE N N N M M M PPPP   -- VERSION
   O   O P     E     N  NN M   M P
    OOO  P     EEEEE N   N M   M P
 ----------------------------------------------------
 running   32 mpi-ranks, with    4 threads/rank
 distrk:  each k-point on   32 cores,    1 groups
 distr:  one band on    1 cores,   32 groups
 vasp.6.3.0 20Jan22 (build Mar 23 2022 14:45:45) complex                         
 POSCAR found type information on POSCAR SrV O 
 POSCAR found :  3 types and       5 ions
 Reading from existing POTCAR
 scaLAPACK will be used
 Reading from existing POTCAR
 LDA part: xc-table for Pade appr. of Perdew
 found WAVECAR, reading the header
 POSCAR, INCAR and KPOINTS ok, starting setup
 FFT: planning ... GRIDC
 FFT: planning ... GRID_SOFT
 FFT: planning ... GRID
 reading WAVECAR
 VASP.5.3 WAVECAR encountered
 the WAVECAR file was read successfully
 initial charge from wavefunction
 entering main loop
       N       E                     dE             d eps       ncg     rms          rms(c)
DIA:   1    -0.391875342808E+02   -0.39188E+02    0.00000E+00     0   0.000E+00
   1 F= -.39187534E+02 E0= -.39187370E+02  d E =-.327692E-03
 writing wavefunctions
 optical routines
 imaginary and real dielectric function
 recalculating local potential from charge density
 direction            1
 direction            2
 direction            3
 ----------------------------------------------------
    OOO  PPPP  EEEEE N   N M   M PPPP
   O   O P   P E     NN  N MM MM P   P
   O   O PPPP  EEEEE N N N M M M PPPP   -- VERSION
   O   O P     E     N  NN M   M P
    OOO  P     EEEEE N   N M   M P
 ----------------------------------------------------
 running   32 mpi-ranks, with    4 threads/rank
 distrk:  each k-point on   32 cores,    1 groups
 distr:  one band on    1 cores,   32 groups
 vasp.6.3.0 20Jan22 (build Mar 23 2022 14:45:45) complex                         
 POSCAR found type information on POSCAR SrV O 
 POSCAR found :  3 types and       5 ions
 Reading from existing POTCAR
 scaLAPACK will be used
 Reading from existing POTCAR
 -----------------------------------------------------------------------------
|                                                                             |
|           W    W    AA    RRRRR   N    N  II  N    N   GGGG   !!!           |
|           W    W   A  A   R    R  NN   N  II  NN   N  G    G  !!!           |
|           W    W  A    A  R    R  N N  N  II  N N  N  G       !!!           |
|           W WW W  AAAAAA  RRRRR   N  N N  II  N  N N  G  GGG   !            |
|           WW  WW  A    A  R   R   N   NN  II  N   NN  G    G                |
|           W    W  A    A  R    R  N    N  II  N    N   GGGG   !!!           |
|                                                                             |
|     The default for ENCUTGWSOFT is different in this version of VASP.       |
|     If you wish to obtain identical results as using pre vasp.6.3           |
|     please manually set ENCUTGWSOFT =300 in the INCAR file.                 |
|                                                                             |
 -----------------------------------------------------------------------------

 found wannier90 input file, will use it for CRPA
 Downsampling of WAVECAR forced by CRPA_READER
 LDA part: xc-table for Pade appr. of Perdew
 found WAVECAR, reading the header
 POSCAR, INCAR and KPOINTS ok, starting setup
 FFT: planning ... GRIDC
 FFT: planning ... GRID_SOFT
 FFT: planning ... GRID
 reading WAVECAR
 VASP.5.3 WAVECAR encountered
 the WAVECAR file was read successfully
 initial charge from wavefunction
 available memory per node:   26.46 GB, setting MAXMEM to   27098
 the WAVEDER file was read successfully
energies w= 
    0.000    0.000
 responsefunction array rank=     704
 LDA part: xc-table for Pade appr. of Perdew

 min. memory requirement per mpi rank    332.0 MB, per node  10625.0 MB

 allocating   1 responsefunctions rank=   704
 allocating   1 responsefunctions rank=   704
 Doing            1  frequencies on each core in blocks of            1
 Calling wannier_setup of wannier90 in library mode
 Wannier90 mode
 Computing MMN (overlap matrix elements)
 Computing AMN (projections onto localized orbitals)
 Calling wannier_run of wannier90 in library mode (check wannier90.wout)
 polarizability determined using CRPA weights
 Correlated subspace contains the Wannier states #: 
   1   2   3
NQ=   1    0.0000    0.0000    0.0000, 
|.........|.........
 performed       3302000 updates of chi_q(r,r)
 total number of BLAS operations    12615.41 Gflops
NQ=   2    0.1429    0.0000    0.0000, 
|.........|.........
 performed       6604000 updates of chi_q(r,r)
 total number of BLAS operations    24369.91 Gflops
NQ=   3    0.2857    0.0000    0.0000, 
|.........|.........
 performed       9906000 updates of chi_q(r,r)
 total number of BLAS operations    36266.05 Gflops
NQ=   4    0.4286    0.0000    0.0000, 
|.........|.........
 performed      13208000 updates of chi_q(r,r)
 total number of BLAS operations    48126.98 Gflops
NQ=   5    0.1429    0.1429    0.0000, 
|.........|.........
 performed      16510000 updates of chi_q(r,r)
 total number of BLAS operations    60452.35 Gflops
NQ=   6    0.2857    0.1429    0.0000, 
|.........|.........
 performed      19812000 updates of chi_q(r,r)
 total number of BLAS operations    72490.89 Gflops
NQ=   7    0.4286    0.1429    0.0000, 
|.........|.........
 performed      23114000 updates of chi_q(r,r)
 total number of BLAS operations    84035.41 Gflops
NQ=   8    0.2857    0.2857    0.0000, 
|.........|.........
 performed      26416000 updates of chi_q(r,r)
 total number of BLAS operations    95755.25 Gflops
NQ=   9    0.4286    0.2857    0.0000, 
|.........|.........
 performed      29718000 updates of chi_q(r,r)
 total number of BLAS operations   107829.84 Gflops
NQ=  10    0.4286    0.4286    0.0000, 
|.........|.........
 performed      33020000 updates of chi_q(r,r)
 total number of BLAS operations   119479.67 Gflops
NQ=  11    0.1429    0.1429    0.1429, 
|.........|.........
 performed      36322000 updates of chi_q(r,r)
 total number of BLAS operations   131625.39 Gflops
NQ=  12    0.2857    0.1429    0.1429, 
|.........|.........
 performed      39624000 updates of chi_q(r,r)
 total number of BLAS operations   143699.74 Gflops
NQ=  13    0.4286    0.1429    0.1429, 
|.........|.........
 performed      42926000 updates of chi_q(r,r)
 total number of BLAS operations   155244.36 Gflops
NQ=  14    0.2857    0.2857    0.1429, 
|.........|.........
 performed      46228000 updates of chi_q(r,r)
 total number of BLAS operations   167140.92 Gflops
NQ=  15    0.4286    0.2857    0.1429, 
|.........|.........
 performed      49530000 updates of chi_q(r,r)
 total number of BLAS operations   178966.79 Gflops
NQ=  16    0.4286    0.4286    0.1429, 
|.........|.........
 performed      52832000 updates of chi_q(r,r)
 total number of BLAS operations   190686.94 Gflops
NQ=  17    0.2857    0.2857    0.2857, 
|.........|.........
 performed      56134000 updates of chi_q(r,r)
 total number of BLAS operations   202406.99 Gflops
NQ=  18    0.4286    0.2857    0.2857, 
|.........|.........
 performed      59436000 updates of chi_q(r,r)
 total number of BLAS operations   213847.26 Gflops
NQ=  19    0.4286    0.4286    0.2857, 
|.........|.........
 performed      62738000 updates of chi_q(r,r)
 total number of BLAS operations   225462.13 Gflops
NQ=  20    0.4286    0.4286    0.4286, 
|.........|.........
 performed      66040000 updates of chi_q(r,r)
 total number of BLAS operations   237077.03 Gflops
 orbitals projected onto localized basis set
  
 Will calculate bare V and effective interaction U
 for the Wannier states:    1 -    3
  
 
 Calculation of V for high cutoff:    800.00
                                 
 Calculation of Coulomb interaction in Wannier basis:
        I                     K  
        --->---\   V   /--->---  
                |~~~~~|          
        ---<---/       \---<---  
        J                     L  
                                 
allocating two-electron 4 orbital integral table    3    3    3    3
 NQ=   1    0.0000    0.0000    0.0000, 
 NQ=  33   -0.0000   -0.4286   -0.0000, 
 NQ=  65   -0.0000    0.1429   -0.2857, 
 NQ=  97   -0.2857   -0.0000   -0.2857, 
 NQ= 129   -0.0000   -0.4286   -0.4286, 
 NQ= 161    0.1429    0.1429   -0.2857, 
 NQ= 193   -0.1429   -0.2857   -0.2857, 
 NQ= 225   -0.4286   -0.2857    0.1429, 
 NQ= 257   -0.2857   -0.4286   -0.1429, 
 NQ= 289    0.2857   -0.2857    0.2857, 
 NQ= 321   -0.4286    0.2857    0.4286, 
 
 Calculation of V for small cutoff:    300.00
allocating two-electron 4 orbital integral table    3    3    3    3
 NQ=   1    0.0000    0.0000    0.0000, 
 NQ=  33   -0.0000   -0.4286   -0.0000, 
 NQ=  65   -0.0000    0.1429   -0.2857, 
 NQ=  97   -0.2857   -0.0000   -0.2857, 
 NQ= 129   -0.0000   -0.4286   -0.4286, 
 NQ= 161    0.1429    0.1429   -0.2857, 
 NQ= 193   -0.1429   -0.2857   -0.2857, 
 NQ= 225   -0.4286   -0.2857    0.1429, 
 NQ= 257   -0.2857   -0.4286   -0.1429, 
 NQ= 289    0.2857   -0.2857    0.2857, 
 NQ= 321   -0.4286    0.2857    0.4286, 
                                 
 Calculation of screened interaction in Wannier basis:
 in the constrained random phase approximation:
        I                     K  
        --->---\   U   /--->---  
                |=====|          
        ---<---/       \---<---  
        J                     L  
                                 
allocating two-electron 4 orbital integral table    3    3    3    3

 Calculating UIJKL at w=    0.0000    0.0000

 NQ=   1    0.0000    0.0000    0.0000, 
 reading now WFULL0001.tmp
 NQ=  33   -0.0000   -0.4286   -0.0000, 
 reading now WFULL0004.tmp
 NQ=  65   -0.0000    0.1429   -0.2857, 
 reading now WFULL0006.tmp
 NQ=  97   -0.2857   -0.0000   -0.2857, 
 reading now WFULL0008.tmp
 NQ= 129   -0.0000   -0.4286   -0.4286, 
 reading now WFULL0010.tmp
 NQ= 161    0.1429    0.1429   -0.2857, 
 reading now WFULL0012.tmp
 NQ= 193   -0.1429   -0.2857   -0.2857, 
 reading now WFULL0014.tmp
 NQ= 225   -0.4286   -0.2857    0.1429, 
 reading now WFULL0015.tmp
 NQ= 257   -0.2857   -0.4286   -0.1429, 
 NQ= 289    0.2857   -0.2857    0.2857, 
 reading now WFULL0017.tmp
 NQ= 321   -0.4286    0.2857    0.4286, 
 reading now WFULL0019.tmp
 entering main loop
