 vasp.6.2.0 18Jan21 (build Apr  6 2021 12:15:55) complex                         
 executed on             LinuxGNU date 2021.04.16  10:04:45
 running   12 mpi-ranks, with    1 threads/rank
 distrk:  each k-point on   12 cores,    1 groups
 distr:  one band on NCORE=   1 cores,   12 groups


--------------------------------------------------------------------------------------------------------


 INCAR:
   SYSTEM = NdNiO2
   LWANNIER90 = TRUE
   NUM_WANN = 16
   WANNIER90_WIN = \"\
guiding_centres \= T\
begin projections\
Ni:l\=2,mr\=4\
Nd:l\=2,mr\=1,5\
Ni:l\=2,mr\=1,2,3,5\
O:p\
Nd:l\=2,mr\=2,3,4\
end projections\
\
begin kpoint_path \
G  0.000  0.000  0.000  X  0.500  0.000  0.000  \
X  0.500  0.000  0.000  M  0.500  0.500  0.000  \
M  0.500  0.500  0.000  R  0.500  0.500  0.500  \
R  0.500  0.500  0.500  G  0.000  0.000  0.000  \
end kpoint_path \
\
write_hr\= true\
bands_plot \= true \
bands_num_points  \= 100\
bands_plot_format \= gnuplot xmgrace\
\"
   PREC = Accurate
   EDIFF = 1e-8
   ENCUT = 550
   LMAXMIX = 6
   LORBIT = 14
   ISMEAR = 2
   SIGMA = 0.005
   EDIFFG = -0.001
   ISIF = 3
   NSW = 0
   IBRION = 1
   NEDOS = 101
   EMIN = -5.0
   EMAX = 15
   ISPIN = 1
   NCORE = 1
   NSIM = 4
   KPAR = 1
   NBANDS = 60
   LDAU = .FALSE.
   LDAUTYPE = 1
   LDAUL = -1 2 -1
   LDAUU = 0 5 0
   LDAUJ = 0 1 0
   LWAVE = .TRUE.
   LCHARG = .TRUE.

 POTCAR:    PAW_PBE Nd_3 06Sep2000                
 POTCAR:    PAW_PBE Ni_pv 06Sep2000               
 POTCAR:    PAW_PBE O 08Apr2002                   
 POTCAR:    PAW_PBE Nd_3 06Sep2000                
   VRHFIN =Nd : [core=Xe4]                                                                          
   LEXCH  = PE                                                                                      
   EATOM  =   934.1494 eV,   68.6580 Ry                                                             
                                                                                                    
   TITEL  = PAW_PBE Nd_3 06Sep2000                                                                  
   LULTRA =        F    use ultrasoft PP ?                                                          
   IUNSCR =        1    unscreen: 0-lin 1-nonlin 2-no                                               
   RPACOR =    2.400    partial core radius                                                         
   POMASS =  144.240; ZVAL   =   11.000    mass and valenz                                          
   RCORE  =    2.800    outmost cutoff radius                                                       
   RWIGS  =    3.000; RWIGS  =    1.588    wigner-seitz radius (au A)                               
   ENMAX  =  182.619; ENMIN  =  136.964 eV                                                          
   RCLOC  =    2.418    cutoff for local pot                                                        
   LCOR   =        T    correct aug charges                                                         
   LPAW   =        T    paw PP                                                                      
   EAUG   =  299.021                                                                                
   DEXC   =    0.000                                                                                
   RMAX   =    2.866    core radius for proj-oper                                                   
   RAUG   =    1.300    factor for augmentation sphere                                              
   RDEP   =    2.838    radius for radial grids                                                     
   RDEPT  =    2.433    core radius for aug-charge                                                  
                                                                                                    
   Atomic configuration                                                                             
   14 entries                                                                                       
     n  l   j            E        occ.                                                              
     1  0  0.50    -43395.8286   2.0000                                                             
     2  0  0.50     -7023.8781   2.0000                                                             
     2  1  1.50     -6278.5294   6.0000                                                             
     3  0  0.50     -1529.8925   2.0000                                                             
     3  1  1.50     -1294.9660   6.0000                                                             
     3  2  2.50      -969.3626  10.0000                                                             
     4  0  0.50      -309.7145   2.0000                                                             
     4  1  1.50      -232.6371   6.0000                                                             
     4  2  2.50      -123.0912  10.0000                                                             
     4  3  2.50        -6.9199   3.0000                                                             
     5  0  0.50       -43.6910   2.0000                                                             
     6  0  0.50        -3.8688   2.0000                                                             
     5  1  1.50       -24.6661   6.0000                                                             
     5  2  2.50        -2.9249   1.0000                                                             
   Description                                                                                      
     l       E           TYP  RCUT    TYP  RCUT                                                     
     0    -43.6910211     23  2.800                                                                 
     0     -3.8687565     23  2.800                                                                 
     1    -24.6660554     23  2.800                                                                 
     1     13.6058260     23  2.800                                                                 
     2     -2.9249058     23  2.800                                                                 
     2      0.2001824     23  2.800                                                                 
  local pseudopotential read in
  partial core-charges read in
  partial kinetic energy density read in
  atomic valenz-charges read in
  non local Contribution for L=           0  read in
    real space projection operators read in
  non local Contribution for L=           0  read in
    real space projection operators read in
  non local Contribution for L=           1  read in
    real space projection operators read in
  non local Contribution for L=           1  read in
    real space projection operators read in
  non local Contribution for L=           2  read in
    real space projection operators read in
  non local Contribution for L=           2  read in
    real space projection operators read in
    PAW grid and wavefunctions read in

   number of l-projection  operators is LMAX  =           6
   number of lm-projection operators is LMMAX =          18

 POTCAR:    PAW_PBE Ni_pv 06Sep2000               
   VRHFIN =Ni:                                                                                      
   LEXCH  = PE                                                                                      
   EATOM  =  3501.1230 eV,  257.3253 Ry                                                             
                                                                                                    
   TITEL  = PAW_PBE Ni_pv 06Sep2000                                                                 
   LULTRA =        F    use ultrasoft PP ?                                                          
   IUNSCR =        1    unscreen: 0-lin 1-nonlin 2-no                                               
   RPACOR =    1.500    partial core radius                                                         
   POMASS =   58.690; ZVAL   =   16.000    mass and valenz                                          
   RCORE  =    2.000    outmost cutoff radius                                                       
   RWIGS  =    2.000; RWIGS  =    1.058    wigner-seitz radius (au A)                               
   ENMAX  =  367.986; ENMIN  =  275.989 eV                                                          
   RCLOC  =    1.301    cutoff for local pot                                                        
   LCOR   =        T    correct aug charges                                                         
   LPAW   =        T    paw PP                                                                      
   EAUG   =  703.443                                                                                
   DEXC   =    0.000                                                                                
   RMAX   =    2.041    core radius for proj-oper                                                   
   RAUG   =    1.300    factor for augmentation sphere                                              
   RDEP   =    2.103    radius for radial grids                                                     
   RDEPT  =    1.618    core radius for aug-charge                                                  
                                                                                                    
   Atomic configuration                                                                             
    8 entries                                                                                       
     n  l   j            E        occ.                                                              
     1  0  0.50     -8206.4253   2.0000                                                             
     2  0  0.50      -976.1748   2.0000                                                             
     2  1  1.50      -839.0571   6.0000                                                             
     3  0  0.50      -105.9991   2.0000                                                             
     3  1  1.50       -66.4603   6.0000                                                             
     3  2  2.50        -4.6458   9.0000                                                             
     4  0  0.50        -4.4926   1.0000                                                             
     4  3  2.50        -1.3606   0.0000                                                             
   Description                                                                                      
     l       E           TYP  RCUT    TYP  RCUT                                                     
     1    -66.4602962     23  1.700                                                                 
     1     -1.3605826     23  1.700                                                                 
     2     -4.6457867     23  2.000                                                                 
     2     -6.0063693     23  2.000                                                                 
     0     -4.4925576     23  1.900                                                                 
     0     16.3626226     23  1.900                                                                 
  local pseudopotential read in
  partial core-charges read in
  partial kinetic energy density read in
  atomic valenz-charges read in
  non local Contribution for L=           1  read in
    real space projection operators read in
  non local Contribution for L=           1  read in
    real space projection operators read in
  non local Contribution for L=           2  read in
    real space projection operators read in
  non local Contribution for L=           2  read in
    real space projection operators read in
  non local Contribution for L=           0  read in
    real space projection operators read in
  non local Contribution for L=           0  read in
    real space projection operators read in
    PAW grid and wavefunctions read in

   number of l-projection  operators is LMAX  =           6
   number of lm-projection operators is LMMAX =          18

 POTCAR:    PAW_PBE O 08Apr2002                   
   VRHFIN =O: s2p4                                                                                  
   LEXCH  = PE                                                                                      
   EATOM  =   432.3788 eV,   31.7789 Ry                                                             
                                                                                                    
   TITEL  = PAW_PBE O 08Apr2002                                                                     
   LULTRA =        F    use ultrasoft PP ?                                                          
   IUNSCR =        1    unscreen: 0-lin 1-nonlin 2-no                                               
   RPACOR =    1.200    partial core radius                                                         
   POMASS =   16.000; ZVAL   =    6.000    mass and valenz                                          
   RCORE  =    1.520    outmost cutoff radius                                                       
   RWIGS  =    1.550; RWIGS  =    0.820    wigner-seitz radius (au A)                               
   ENMAX  =  400.000; ENMIN  =  300.000 eV                                                          
   ICORE  =        2    local potential                                                             
   LCOR   =        T    correct aug charges                                                         
   LPAW   =        T    paw PP                                                                      
   EAUG   =  605.392                                                                                
   DEXC   =    0.000                                                                                
   RMAX   =    1.553    core radius for proj-oper                                                   
   RAUG   =    1.300    factor for augmentation sphere                                              
   RDEP   =    1.550    radius for radial grids                                                     
   RDEPT  =    1.329    core radius for aug-charge                                                  
                                                                                                    
   Atomic configuration                                                                             
    4 entries                                                                                       
     n  l   j            E        occ.                                                              
     1  0  0.50      -514.6923   2.0000                                                             
     2  0  0.50       -23.9615   2.0000                                                             
     2  1  0.50        -9.0305   4.0000                                                             
     3  2  1.50        -9.5241   0.0000                                                             
   Description                                                                                      
     l       E           TYP  RCUT    TYP  RCUT                                                     
     0    -23.9615318     23  1.200                                                                 
     0     -9.5240782     23  1.200                                                                 
     1     -9.0304911     23  1.520                                                                 
     1      8.1634956     23  1.520                                                                 
     2     -9.5240782      7  1.500                                                                 
  local pseudopotential read in
  partial core-charges read in
  partial kinetic energy density read in
  kinetic energy density of atom read in
  atomic valenz-charges read in
  non local Contribution for L=           0  read in
    real space projection operators read in
  non local Contribution for L=           0  read in
    real space projection operators read in
  non local Contribution for L=           1  read in
    real space projection operators read in
  non local Contribution for L=           1  read in
    real space projection operators read in
    PAW grid and wavefunctions read in

   number of l-projection  operators is LMAX  =           4
   number of lm-projection operators is LMMAX =           8

  PAW_PBE Nd_3 06Sep2000                :
 energy of atom  1       EATOM= -934.1494
 kinetic energy error for atom=    0.0005 (will be added to EATOM!!)
  PAW_PBE Ni_pv 06Sep2000               :
 energy of atom  2       EATOM=-3501.1230
 kinetic energy error for atom=    0.0396 (will be added to EATOM!!)
  PAW_PBE O 08Apr2002                   :
 energy of atom  3       EATOM= -432.3788
 kinetic energy error for atom=    0.0194 (will be added to EATOM!!)


 POSCAR: NdNiO2
  positions in direct lattice
  No initial velocities read in
 exchange correlation table for  LEXCH =        8
   RHO(1)=    0.500       N(1)  =     2000
   RHO(2)=  100.500       N(2)  =     4000



--------------------------------------------------------------------------------------------------------


 ion  position               nearest neighbor table
   1  0.000  0.000  0.000-   3 2.57   4 2.57   3 2.57   4 2.57   3 2.57   3 2.57   4 2.57   4 2.57

   2  0.500  0.500  0.500-   3 1.96   4 1.96   4 1.96   3 1.96
   3  0.000  0.500  0.500-   2 1.96   2 1.96   1 2.57   1 2.57   1 2.57   1 2.57
   4  0.500  0.000  0.500-   2 1.96   2 1.96   1 2.57   1 2.57   1 2.57   1 2.57

  LATTYP: Found a simple tetragonal cell.
 ALAT       =     3.9199979305
 C/A-ratio  =     0.8443876997
  
  Lattice vectors:
  
 A1 = (   3.9199979305,   0.0000000000,   0.0000000000)
 A2 = (   0.0000000000,   3.9199979305,   0.0000000000)
 A3 = (   0.0000000000,   0.0000000000,   3.3099980354)


Analysis of symmetry for initial positions (statically):
=====================================================================
 Subroutine PRICEL returns:
 Original cell was already a primitive cell.
 

 Routine SETGRP: Setting up the symmetry group for a 
 simple tetragonal supercell.


 Subroutine GETGRP returns: Found 16 space group operations
 (whereof 16 operations were pure point group operations)
 out of a pool of 16 trial point group operations.


The static configuration has the point symmetry D_4h.


Analysis of symmetry for dynamics (positions and initial velocities):
=====================================================================
 Subroutine PRICEL returns:
 Original cell was already a primitive cell.
 

 Routine SETGRP: Setting up the symmetry group for a 
 simple tetragonal supercell.


 Subroutine GETGRP returns: Found 16 space group operations
 (whereof 16 operations were pure point group operations)
 out of a pool of 16 trial point group operations.


The dynamic configuration has the point symmetry D_4h.


 Subroutine INISYM returns: Found 16 space group operations
 (whereof 16 operations are pure point group operations),
 and found     1 'primitive' translations


----------------------------------------------------------------------------------------

                                     Primitive cell                                     

  volume of cell :      50.8627

  direct lattice vectors                    reciprocal lattice vectors
     3.919997931  0.000000000  0.000000000     0.255102175  0.000000000  0.000000000
     0.000000000  3.919997931  0.000000000     0.000000000  0.255102175  0.000000000
     0.000000000  0.000000000  3.309998035     0.000000000  0.000000000  0.302114983

  length of vectors
     3.919997931  3.919997931  3.309998035     0.255102175  0.255102175  0.302114983

  position of ions in fractional coordinates (direct lattice)
     0.000000000  0.000000000  0.000000000
     0.500000000  0.500000000  0.500000000
     0.000000000  0.500000000  0.500000000
     0.500000000  0.000000000  0.500000000

  ion indices of the primitive-cell ions
   primitive index   ion index
                 1           1
                 2           2
                 3           3
                 4           4

----------------------------------------------------------------------------------------



 KPOINTS: Automatic Mesh                          

Automatic generation of k-mesh.
 Grid dimensions read from file:
 generate k-points for:    9    9    9

 Generating k-lattice:

  Cartesian coordinates                     Fractional coordinates (reciprocal lattice)
     0.028344686  0.000000000  0.000000000     0.111111111  0.000000000  0.000000000
     0.000000000  0.028344686  0.000000000     0.000000000  0.111111111  0.000000000
     0.000000000  0.000000000  0.033568331     0.000000000  0.000000000  0.111111111

  Length of vectors
     0.028344686  0.028344686  0.033568331

  Shift w.r.t. Gamma in fractional coordinates (k-lattice)
     0.000000000  0.000000000  0.000000000

 
 Subroutine IBZKPT returns following result:
 ===========================================
 
 Found     75 irreducible k-points:
 
 Following reciprocal coordinates:
            Coordinates               Weight
  0.000000  0.000000  0.000000      1.000000
  0.111111  0.000000  0.000000      4.000000
  0.222222  0.000000  0.000000      4.000000
  0.333333  0.000000  0.000000      4.000000
  0.444444  0.000000  0.000000      4.000000
  0.111111  0.111111  0.000000      4.000000
  0.222222  0.111111  0.000000      8.000000
  0.333333  0.111111  0.000000      8.000000
  0.444444  0.111111  0.000000      8.000000
  0.222222  0.222222  0.000000      4.000000
  0.333333  0.222222  0.000000      8.000000
  0.444444  0.222222  0.000000      8.000000
  0.333333  0.333333  0.000000      4.000000
  0.444444  0.333333  0.000000      8.000000
  0.444444  0.444444  0.000000      4.000000
  0.000000  0.000000  0.111111      2.000000
  0.111111  0.000000  0.111111      8.000000
  0.222222  0.000000  0.111111      8.000000
  0.333333  0.000000  0.111111      8.000000
  0.444444  0.000000  0.111111      8.000000
  0.111111  0.111111  0.111111      8.000000
  0.222222  0.111111  0.111111     16.000000
  0.333333  0.111111  0.111111     16.000000
  0.444444  0.111111  0.111111     16.000000
  0.222222  0.222222  0.111111      8.000000
  0.333333  0.222222  0.111111     16.000000
  0.444444  0.222222  0.111111     16.000000
  0.333333  0.333333  0.111111      8.000000
  0.444444  0.333333  0.111111     16.000000
  0.444444  0.444444  0.111111      8.000000
  0.000000  0.000000  0.222222      2.000000
  0.111111  0.000000  0.222222      8.000000
  0.222222  0.000000  0.222222      8.000000
  0.333333  0.000000  0.222222      8.000000
  0.444444  0.000000  0.222222      8.000000
  0.111111  0.111111  0.222222      8.000000
  0.222222  0.111111  0.222222     16.000000
  0.333333  0.111111  0.222222     16.000000
  0.444444  0.111111  0.222222     16.000000
  0.222222  0.222222  0.222222      8.000000
  0.333333  0.222222  0.222222     16.000000
  0.444444  0.222222  0.222222     16.000000
  0.333333  0.333333  0.222222      8.000000
  0.444444  0.333333  0.222222     16.000000
  0.444444  0.444444  0.222222      8.000000
  0.000000  0.000000  0.333333      2.000000
  0.111111  0.000000  0.333333      8.000000
  0.222222  0.000000  0.333333      8.000000
  0.333333  0.000000  0.333333      8.000000
  0.444444  0.000000  0.333333      8.000000
  0.111111  0.111111  0.333333      8.000000
  0.222222  0.111111  0.333333     16.000000
  0.333333  0.111111  0.333333     16.000000
  0.444444  0.111111  0.333333     16.000000
  0.222222  0.222222  0.333333      8.000000
  0.333333  0.222222  0.333333     16.000000
  0.444444  0.222222  0.333333     16.000000
  0.333333  0.333333  0.333333      8.000000
  0.444444  0.333333  0.333333     16.000000
  0.444444  0.444444  0.333333      8.000000
  0.000000  0.000000  0.444444      2.000000
  0.111111  0.000000  0.444444      8.000000
  0.222222  0.000000  0.444444      8.000000
  0.333333  0.000000  0.444444      8.000000
  0.444444  0.000000  0.444444      8.000000
  0.111111  0.111111  0.444444      8.000000
  0.222222  0.111111  0.444444     16.000000
  0.333333  0.111111  0.444444     16.000000
  0.444444  0.111111  0.444444     16.000000
  0.222222  0.222222  0.444444      8.000000
  0.333333  0.222222  0.444444     16.000000
  0.444444  0.222222  0.444444     16.000000
  0.333333  0.333333  0.444444      8.000000
  0.444444  0.333333  0.444444     16.000000
  0.444444  0.444444  0.444444      8.000000
 
 Following cartesian coordinates:
            Coordinates               Weight
  0.000000  0.000000  0.000000      1.000000
  0.028345  0.000000  0.000000      4.000000
  0.056689  0.000000  0.000000      4.000000
  0.085034  0.000000  0.000000      4.000000
  0.113379  0.000000  0.000000      4.000000
  0.028345  0.028345  0.000000      4.000000
  0.056689  0.028345  0.000000      8.000000
  0.085034  0.028345  0.000000      8.000000
  0.113379  0.028345  0.000000      8.000000
  0.056689  0.056689  0.000000      4.000000
  0.085034  0.056689  0.000000      8.000000
  0.113379  0.056689  0.000000      8.000000
  0.085034  0.085034  0.000000      4.000000
  0.113379  0.085034  0.000000      8.000000
  0.113379  0.113379  0.000000      4.000000
  0.000000  0.000000  0.033568      2.000000
  0.028345  0.000000  0.033568      8.000000
  0.056689  0.000000  0.033568      8.000000
  0.085034  0.000000  0.033568      8.000000
  0.113379  0.000000  0.033568      8.000000
  0.028345  0.028345  0.033568      8.000000
  0.056689  0.028345  0.033568     16.000000
  0.085034  0.028345  0.033568     16.000000
  0.113379  0.028345  0.033568     16.000000
  0.056689  0.056689  0.033568      8.000000
  0.085034  0.056689  0.033568     16.000000
  0.113379  0.056689  0.033568     16.000000
  0.085034  0.085034  0.033568      8.000000
  0.113379  0.085034  0.033568     16.000000
  0.113379  0.113379  0.033568      8.000000
  0.000000  0.000000  0.067137      2.000000
  0.028345  0.000000  0.067137      8.000000
  0.056689  0.000000  0.067137      8.000000
  0.085034  0.000000  0.067137      8.000000
  0.113379  0.000000  0.067137      8.000000
  0.028345  0.028345  0.067137      8.000000
  0.056689  0.028345  0.067137     16.000000
  0.085034  0.028345  0.067137     16.000000
  0.113379  0.028345  0.067137     16.000000
  0.056689  0.056689  0.067137      8.000000
  0.085034  0.056689  0.067137     16.000000
  0.113379  0.056689  0.067137     16.000000
  0.085034  0.085034  0.067137      8.000000
  0.113379  0.085034  0.067137     16.000000
  0.113379  0.113379  0.067137      8.000000
  0.000000  0.000000  0.100705      2.000000
  0.028345  0.000000  0.100705      8.000000
  0.056689  0.000000  0.100705      8.000000
  0.085034  0.000000  0.100705      8.000000
  0.113379  0.000000  0.100705      8.000000
  0.028345  0.028345  0.100705      8.000000
  0.056689  0.028345  0.100705     16.000000
  0.085034  0.028345  0.100705     16.000000
  0.113379  0.028345  0.100705     16.000000
  0.056689  0.056689  0.100705      8.000000
  0.085034  0.056689  0.100705     16.000000
  0.113379  0.056689  0.100705     16.000000
  0.085034  0.085034  0.100705      8.000000
  0.113379  0.085034  0.100705     16.000000
  0.113379  0.113379  0.100705      8.000000
  0.000000  0.000000  0.134273      2.000000
  0.028345  0.000000  0.134273      8.000000
  0.056689  0.000000  0.134273      8.000000
  0.085034  0.000000  0.134273      8.000000
  0.113379  0.000000  0.134273      8.000000
  0.028345  0.028345  0.134273      8.000000
  0.056689  0.028345  0.134273     16.000000
  0.085034  0.028345  0.134273     16.000000
  0.113379  0.028345  0.134273     16.000000
  0.056689  0.056689  0.134273      8.000000
  0.085034  0.056689  0.134273     16.000000
  0.113379  0.056689  0.134273     16.000000
  0.085034  0.085034  0.134273      8.000000
  0.113379  0.085034  0.134273     16.000000
  0.113379  0.113379  0.134273      8.000000
 
 
 Subroutine IBZKPT_HF returns following result:
 ==============================================
 
 Found    729 k-points in 1st BZ
 the following    729 k-points will be used (e.g. in the exchange kernel)
 Following reciprocal coordinates:   # in IRBZ
  0.000000  0.000000  0.000000    0.00137174   1 t-inv F
  0.111111  0.000000  0.000000    0.00137174   2 t-inv F
  0.222222  0.000000  0.000000    0.00137174   3 t-inv F
  0.333333  0.000000  0.000000    0.00137174   4 t-inv F
  0.444444  0.000000  0.000000    0.00137174   5 t-inv F
  0.111111  0.111111  0.000000    0.00137174   6 t-inv F
  0.222222  0.111111  0.000000    0.00137174   7 t-inv F
  0.333333  0.111111  0.000000    0.00137174   8 t-inv F
  0.444444  0.111111  0.000000    0.00137174   9 t-inv F
  0.222222  0.222222  0.000000    0.00137174  10 t-inv F
  0.333333  0.222222  0.000000    0.00137174  11 t-inv F
  0.444444  0.222222  0.000000    0.00137174  12 t-inv F
  0.333333  0.333333  0.000000    0.00137174  13 t-inv F
  0.444444  0.333333  0.000000    0.00137174  14 t-inv F
  0.444444  0.444444  0.000000    0.00137174  15 t-inv F
  0.000000  0.000000  0.111111    0.00137174  16 t-inv F
  0.111111  0.000000  0.111111    0.00137174  17 t-inv F
  0.222222  0.000000  0.111111    0.00137174  18 t-inv F
  0.333333  0.000000  0.111111    0.00137174  19 t-inv F
  0.444444  0.000000  0.111111    0.00137174  20 t-inv F
  0.111111  0.111111  0.111111    0.00137174  21 t-inv F
  0.222222  0.111111  0.111111    0.00137174  22 t-inv F
  0.333333  0.111111  0.111111    0.00137174  23 t-inv F
  0.444444  0.111111  0.111111    0.00137174  24 t-inv F
  0.222222  0.222222  0.111111    0.00137174  25 t-inv F
  0.333333  0.222222  0.111111    0.00137174  26 t-inv F
  0.444444  0.222222  0.111111    0.00137174  27 t-inv F
  0.333333  0.333333  0.111111    0.00137174  28 t-inv F
  0.444444  0.333333  0.111111    0.00137174  29 t-inv F
  0.444444  0.444444  0.111111    0.00137174  30 t-inv F
  0.000000  0.000000  0.222222    0.00137174  31 t-inv F
  0.111111  0.000000  0.222222    0.00137174  32 t-inv F
  0.222222  0.000000  0.222222    0.00137174  33 t-inv F
  0.333333  0.000000  0.222222    0.00137174  34 t-inv F
  0.444444  0.000000  0.222222    0.00137174  35 t-inv F
  0.111111  0.111111  0.222222    0.00137174  36 t-inv F
  0.222222  0.111111  0.222222    0.00137174  37 t-inv F
  0.333333  0.111111  0.222222    0.00137174  38 t-inv F
  0.444444  0.111111  0.222222    0.00137174  39 t-inv F
  0.222222  0.222222  0.222222    0.00137174  40 t-inv F
  0.333333  0.222222  0.222222    0.00137174  41 t-inv F
  0.444444  0.222222  0.222222    0.00137174  42 t-inv F
  0.333333  0.333333  0.222222    0.00137174  43 t-inv F
  0.444444  0.333333  0.222222    0.00137174  44 t-inv F
  0.444444  0.444444  0.222222    0.00137174  45 t-inv F
  0.000000  0.000000  0.333333    0.00137174  46 t-inv F
  0.111111  0.000000  0.333333    0.00137174  47 t-inv F
  0.222222  0.000000  0.333333    0.00137174  48 t-inv F
  0.333333  0.000000  0.333333    0.00137174  49 t-inv F
  0.444444  0.000000  0.333333    0.00137174  50 t-inv F
  0.111111  0.111111  0.333333    0.00137174  51 t-inv F
  0.222222  0.111111  0.333333    0.00137174  52 t-inv F
  0.333333  0.111111  0.333333    0.00137174  53 t-inv F
  0.444444  0.111111  0.333333    0.00137174  54 t-inv F
  0.222222  0.222222  0.333333    0.00137174  55 t-inv F
  0.333333  0.222222  0.333333    0.00137174  56 t-inv F
  0.444444  0.222222  0.333333    0.00137174  57 t-inv F
  0.333333  0.333333  0.333333    0.00137174  58 t-inv F
  0.444444  0.333333  0.333333    0.00137174  59 t-inv F
  0.444444  0.444444  0.333333    0.00137174  60 t-inv F
  0.000000  0.000000  0.444444    0.00137174  61 t-inv F
  0.111111  0.000000  0.444444    0.00137174  62 t-inv F
  0.222222  0.000000  0.444444    0.00137174  63 t-inv F
  0.333333  0.000000  0.444444    0.00137174  64 t-inv F
  0.444444  0.000000  0.444444    0.00137174  65 t-inv F
  0.111111  0.111111  0.444444    0.00137174  66 t-inv F
  0.222222  0.111111  0.444444    0.00137174  67 t-inv F
  0.333333  0.111111  0.444444    0.00137174  68 t-inv F
  0.444444  0.111111  0.444444    0.00137174  69 t-inv F
  0.222222  0.222222  0.444444    0.00137174  70 t-inv F
  0.333333  0.222222  0.444444    0.00137174  71 t-inv F
  0.444444  0.222222  0.444444    0.00137174  72 t-inv F
  0.333333  0.333333  0.444444    0.00137174  73 t-inv F
  0.444444  0.333333  0.444444    0.00137174  74 t-inv F
  0.444444  0.444444  0.444444    0.00137174  75 t-inv F
 -0.111111 -0.000000 -0.000000    0.00137174   2 t-inv F
 -0.000000  0.111111  0.000000    0.00137174   2 t-inv F
  0.000000 -0.111111 -0.000000    0.00137174   2 t-inv F
 -0.222222 -0.000000 -0.000000    0.00137174   3 t-inv F
 -0.000000  0.222222  0.000000    0.00137174   3 t-inv F
  0.000000 -0.222222 -0.000000    0.00137174   3 t-inv F
 -0.333333 -0.000000 -0.000000    0.00137174   4 t-inv F
 -0.000000  0.333333  0.000000    0.00137174   4 t-inv F
  0.000000 -0.333333 -0.000000    0.00137174   4 t-inv F
 -0.444444 -0.000000 -0.000000    0.00137174   5 t-inv F
 -0.000000  0.444444  0.000000    0.00137174   5 t-inv F
  0.000000 -0.444444 -0.000000    0.00137174   5 t-inv F
 -0.111111 -0.111111 -0.000000    0.00137174   6 t-inv F
 -0.111111  0.111111  0.000000    0.00137174   6 t-inv F
  0.111111 -0.111111 -0.000000    0.00137174   6 t-inv F
 -0.222222 -0.111111 -0.000000    0.00137174   7 t-inv F
 -0.111111  0.222222  0.000000    0.00137174   7 t-inv F
  0.111111 -0.222222 -0.000000    0.00137174   7 t-inv F
 -0.222222  0.111111 -0.000000    0.00137174   7 t-inv F
  0.222222 -0.111111  0.000000    0.00137174   7 t-inv F
  0.111111  0.222222 -0.000000    0.00137174   7 t-inv F
 -0.111111 -0.222222  0.000000    0.00137174   7 t-inv F
 -0.333333 -0.111111 -0.000000    0.00137174   8 t-inv F
 -0.111111  0.333333  0.000000    0.00137174   8 t-inv F
  0.111111 -0.333333 -0.000000    0.00137174   8 t-inv F
 -0.333333  0.111111 -0.000000    0.00137174   8 t-inv F
  0.333333 -0.111111  0.000000    0.00137174   8 t-inv F
  0.111111  0.333333 -0.000000    0.00137174   8 t-inv F
 -0.111111 -0.333333  0.000000    0.00137174   8 t-inv F
 -0.444444 -0.111111 -0.000000    0.00137174   9 t-inv F
 -0.111111  0.444444  0.000000    0.00137174   9 t-inv F
  0.111111 -0.444444 -0.000000    0.00137174   9 t-inv F
 -0.444444  0.111111 -0.000000    0.00137174   9 t-inv F
  0.444444 -0.111111  0.000000    0.00137174   9 t-inv F
  0.111111  0.444444 -0.000000    0.00137174   9 t-inv F
 -0.111111 -0.444444  0.000000    0.00137174   9 t-inv F
 -0.222222 -0.222222 -0.000000    0.00137174  10 t-inv F
 -0.222222  0.222222  0.000000    0.00137174  10 t-inv F
  0.222222 -0.222222 -0.000000    0.00137174  10 t-inv F
 -0.333333 -0.222222 -0.000000    0.00137174  11 t-inv F
 -0.222222  0.333333  0.000000    0.00137174  11 t-inv F
  0.222222 -0.333333 -0.000000    0.00137174  11 t-inv F
 -0.333333  0.222222 -0.000000    0.00137174  11 t-inv F
  0.333333 -0.222222  0.000000    0.00137174  11 t-inv F
  0.222222  0.333333 -0.000000    0.00137174  11 t-inv F
 -0.222222 -0.333333  0.000000    0.00137174  11 t-inv F
 -0.444444 -0.222222 -0.000000    0.00137174  12 t-inv F
 -0.222222  0.444444  0.000000    0.00137174  12 t-inv F
  0.222222 -0.444444 -0.000000    0.00137174  12 t-inv F
 -0.444444  0.222222 -0.000000    0.00137174  12 t-inv F
  0.444444 -0.222222  0.000000    0.00137174  12 t-inv F
  0.222222  0.444444 -0.000000    0.00137174  12 t-inv F
 -0.222222 -0.444444  0.000000    0.00137174  12 t-inv F
 -0.333333 -0.333333 -0.000000    0.00137174  13 t-inv F
 -0.333333  0.333333  0.000000    0.00137174  13 t-inv F
  0.333333 -0.333333 -0.000000    0.00137174  13 t-inv F
 -0.444444 -0.333333 -0.000000    0.00137174  14 t-inv F
 -0.333333  0.444444  0.000000    0.00137174  14 t-inv F
  0.333333 -0.444444 -0.000000    0.00137174  14 t-inv F
 -0.444444  0.333333 -0.000000    0.00137174  14 t-inv F
  0.444444 -0.333333  0.000000    0.00137174  14 t-inv F
  0.333333  0.444444 -0.000000    0.00137174  14 t-inv F
 -0.333333 -0.444444  0.000000    0.00137174  14 t-inv F
 -0.444444 -0.444444 -0.000000    0.00137174  15 t-inv F
 -0.444444  0.444444  0.000000    0.00137174  15 t-inv F
  0.444444 -0.444444 -0.000000    0.00137174  15 t-inv F
 -0.000000 -0.000000 -0.111111    0.00137174  16 t-inv F
 -0.111111 -0.000000 -0.111111    0.00137174  17 t-inv F
 -0.000000  0.111111  0.111111    0.00137174  17 t-inv F
  0.000000 -0.111111 -0.111111    0.00137174  17 t-inv F
 -0.111111 -0.000000  0.111111    0.00137174  17 t-inv F
  0.111111  0.000000 -0.111111    0.00137174  17 t-inv F
  0.000000 -0.111111  0.111111    0.00137174  17 t-inv F
 -0.000000  0.111111 -0.111111    0.00137174  17 t-inv F
 -0.222222 -0.000000 -0.111111    0.00137174  18 t-inv F
 -0.000000  0.222222  0.111111    0.00137174  18 t-inv F
  0.000000 -0.222222 -0.111111    0.00137174  18 t-inv F
 -0.222222 -0.000000  0.111111    0.00137174  18 t-inv F
  0.222222  0.000000 -0.111111    0.00137174  18 t-inv F
  0.000000 -0.222222  0.111111    0.00137174  18 t-inv F
 -0.000000  0.222222 -0.111111    0.00137174  18 t-inv F
 -0.333333 -0.000000 -0.111111    0.00137174  19 t-inv F
 -0.000000  0.333333  0.111111    0.00137174  19 t-inv F
  0.000000 -0.333333 -0.111111    0.00137174  19 t-inv F
 -0.333333 -0.000000  0.111111    0.00137174  19 t-inv F
  0.333333  0.000000 -0.111111    0.00137174  19 t-inv F
  0.000000 -0.333333  0.111111    0.00137174  19 t-inv F
 -0.000000  0.333333 -0.111111    0.00137174  19 t-inv F
 -0.444444 -0.000000 -0.111111    0.00137174  20 t-inv F
 -0.000000  0.444444  0.111111    0.00137174  20 t-inv F
  0.000000 -0.444444 -0.111111    0.00137174  20 t-inv F
 -0.444444 -0.000000  0.111111    0.00137174  20 t-inv F
  0.444444  0.000000 -0.111111    0.00137174  20 t-inv F
  0.000000 -0.444444  0.111111    0.00137174  20 t-inv F
 -0.000000  0.444444 -0.111111    0.00137174  20 t-inv F
 -0.111111 -0.111111 -0.111111    0.00137174  21 t-inv F
 -0.111111  0.111111  0.111111    0.00137174  21 t-inv F
  0.111111 -0.111111 -0.111111    0.00137174  21 t-inv F
 -0.111111 -0.111111  0.111111    0.00137174  21 t-inv F
  0.111111  0.111111 -0.111111    0.00137174  21 t-inv F
  0.111111 -0.111111  0.111111    0.00137174  21 t-inv F
 -0.111111  0.111111 -0.111111    0.00137174  21 t-inv F
 -0.222222 -0.111111 -0.111111    0.00137174  22 t-inv F
 -0.111111  0.222222  0.111111    0.00137174  22 t-inv F
  0.111111 -0.222222 -0.111111    0.00137174  22 t-inv F
 -0.222222 -0.111111  0.111111    0.00137174  22 t-inv F
  0.222222  0.111111 -0.111111    0.00137174  22 t-inv F
  0.111111 -0.222222  0.111111    0.00137174  22 t-inv F
 -0.111111  0.222222 -0.111111    0.00137174  22 t-inv F
 -0.222222  0.111111 -0.111111    0.00137174  22 t-inv F
  0.222222 -0.111111  0.111111    0.00137174  22 t-inv F
  0.111111  0.222222 -0.111111    0.00137174  22 t-inv F
 -0.111111 -0.222222  0.111111    0.00137174  22 t-inv F
  0.222222 -0.111111 -0.111111    0.00137174  22 t-inv F
 -0.222222  0.111111  0.111111    0.00137174  22 t-inv F
 -0.111111 -0.222222 -0.111111    0.00137174  22 t-inv F
  0.111111  0.222222  0.111111    0.00137174  22 t-inv F
 -0.333333 -0.111111 -0.111111    0.00137174  23 t-inv F
 -0.111111  0.333333  0.111111    0.00137174  23 t-inv F
  0.111111 -0.333333 -0.111111    0.00137174  23 t-inv F
 -0.333333 -0.111111  0.111111    0.00137174  23 t-inv F
  0.333333  0.111111 -0.111111    0.00137174  23 t-inv F
  0.111111 -0.333333  0.111111    0.00137174  23 t-inv F
 -0.111111  0.333333 -0.111111    0.00137174  23 t-inv F
 -0.333333  0.111111 -0.111111    0.00137174  23 t-inv F
  0.333333 -0.111111  0.111111    0.00137174  23 t-inv F
  0.111111  0.333333 -0.111111    0.00137174  23 t-inv F
 -0.111111 -0.333333  0.111111    0.00137174  23 t-inv F
  0.333333 -0.111111 -0.111111    0.00137174  23 t-inv F
 -0.333333  0.111111  0.111111    0.00137174  23 t-inv F
 -0.111111 -0.333333 -0.111111    0.00137174  23 t-inv F
  0.111111  0.333333  0.111111    0.00137174  23 t-inv F
 -0.444444 -0.111111 -0.111111    0.00137174  24 t-inv F
 -0.111111  0.444444  0.111111    0.00137174  24 t-inv F
  0.111111 -0.444444 -0.111111    0.00137174  24 t-inv F
 -0.444444 -0.111111  0.111111    0.00137174  24 t-inv F
  0.444444  0.111111 -0.111111    0.00137174  24 t-inv F
  0.111111 -0.444444  0.111111    0.00137174  24 t-inv F
 -0.111111  0.444444 -0.111111    0.00137174  24 t-inv F
 -0.444444  0.111111 -0.111111    0.00137174  24 t-inv F
  0.444444 -0.111111  0.111111    0.00137174  24 t-inv F
  0.111111  0.444444 -0.111111    0.00137174  24 t-inv F
 -0.111111 -0.444444  0.111111    0.00137174  24 t-inv F
  0.444444 -0.111111 -0.111111    0.00137174  24 t-inv F
 -0.444444  0.111111  0.111111    0.00137174  24 t-inv F
 -0.111111 -0.444444 -0.111111    0.00137174  24 t-inv F
  0.111111  0.444444  0.111111    0.00137174  24 t-inv F
 -0.222222 -0.222222 -0.111111    0.00137174  25 t-inv F
 -0.222222  0.222222  0.111111    0.00137174  25 t-inv F
  0.222222 -0.222222 -0.111111    0.00137174  25 t-inv F
 -0.222222 -0.222222  0.111111    0.00137174  25 t-inv F
  0.222222  0.222222 -0.111111    0.00137174  25 t-inv F
  0.222222 -0.222222  0.111111    0.00137174  25 t-inv F
 -0.222222  0.222222 -0.111111    0.00137174  25 t-inv F
 -0.333333 -0.222222 -0.111111    0.00137174  26 t-inv F
 -0.222222  0.333333  0.111111    0.00137174  26 t-inv F
  0.222222 -0.333333 -0.111111    0.00137174  26 t-inv F
 -0.333333 -0.222222  0.111111    0.00137174  26 t-inv F
  0.333333  0.222222 -0.111111    0.00137174  26 t-inv F
  0.222222 -0.333333  0.111111    0.00137174  26 t-inv F
 -0.222222  0.333333 -0.111111    0.00137174  26 t-inv F
 -0.333333  0.222222 -0.111111    0.00137174  26 t-inv F
  0.333333 -0.222222  0.111111    0.00137174  26 t-inv F
  0.222222  0.333333 -0.111111    0.00137174  26 t-inv F
 -0.222222 -0.333333  0.111111    0.00137174  26 t-inv F
  0.333333 -0.222222 -0.111111    0.00137174  26 t-inv F
 -0.333333  0.222222  0.111111    0.00137174  26 t-inv F
 -0.222222 -0.333333 -0.111111    0.00137174  26 t-inv F
  0.222222  0.333333  0.111111    0.00137174  26 t-inv F
 -0.444444 -0.222222 -0.111111    0.00137174  27 t-inv F
 -0.222222  0.444444  0.111111    0.00137174  27 t-inv F
  0.222222 -0.444444 -0.111111    0.00137174  27 t-inv F
 -0.444444 -0.222222  0.111111    0.00137174  27 t-inv F
  0.444444  0.222222 -0.111111    0.00137174  27 t-inv F
  0.222222 -0.444444  0.111111    0.00137174  27 t-inv F
 -0.222222  0.444444 -0.111111    0.00137174  27 t-inv F
 -0.444444  0.222222 -0.111111    0.00137174  27 t-inv F
  0.444444 -0.222222  0.111111    0.00137174  27 t-inv F
  0.222222  0.444444 -0.111111    0.00137174  27 t-inv F
 -0.222222 -0.444444  0.111111    0.00137174  27 t-inv F
  0.444444 -0.222222 -0.111111    0.00137174  27 t-inv F
 -0.444444  0.222222  0.111111    0.00137174  27 t-inv F
 -0.222222 -0.444444 -0.111111    0.00137174  27 t-inv F
  0.222222  0.444444  0.111111    0.00137174  27 t-inv F
 -0.333333 -0.333333 -0.111111    0.00137174  28 t-inv F
 -0.333333  0.333333  0.111111    0.00137174  28 t-inv F
  0.333333 -0.333333 -0.111111    0.00137174  28 t-inv F
 -0.333333 -0.333333  0.111111    0.00137174  28 t-inv F
  0.333333  0.333333 -0.111111    0.00137174  28 t-inv F
  0.333333 -0.333333  0.111111    0.00137174  28 t-inv F
 -0.333333  0.333333 -0.111111    0.00137174  28 t-inv F
 -0.444444 -0.333333 -0.111111    0.00137174  29 t-inv F
 -0.333333  0.444444  0.111111    0.00137174  29 t-inv F
  0.333333 -0.444444 -0.111111    0.00137174  29 t-inv F
 -0.444444 -0.333333  0.111111    0.00137174  29 t-inv F
  0.444444  0.333333 -0.111111    0.00137174  29 t-inv F
  0.333333 -0.444444  0.111111    0.00137174  29 t-inv F
 -0.333333  0.444444 -0.111111    0.00137174  29 t-inv F
 -0.444444  0.333333 -0.111111    0.00137174  29 t-inv F
  0.444444 -0.333333  0.111111    0.00137174  29 t-inv F
  0.333333  0.444444 -0.111111    0.00137174  29 t-inv F
 -0.333333 -0.444444  0.111111    0.00137174  29 t-inv F
  0.444444 -0.333333 -0.111111    0.00137174  29 t-inv F
 -0.444444  0.333333  0.111111    0.00137174  29 t-inv F
 -0.333333 -0.444444 -0.111111    0.00137174  29 t-inv F
  0.333333  0.444444  0.111111    0.00137174  29 t-inv F
 -0.444444 -0.444444 -0.111111    0.00137174  30 t-inv F
 -0.444444  0.444444  0.111111    0.00137174  30 t-inv F
  0.444444 -0.444444 -0.111111    0.00137174  30 t-inv F
 -0.444444 -0.444444  0.111111    0.00137174  30 t-inv F
  0.444444  0.444444 -0.111111    0.00137174  30 t-inv F
  0.444444 -0.444444  0.111111    0.00137174  30 t-inv F
 -0.444444  0.444444 -0.111111    0.00137174  30 t-inv F
 -0.000000 -0.000000 -0.222222    0.00137174  31 t-inv F
 -0.111111 -0.000000 -0.222222    0.00137174  32 t-inv F
 -0.000000  0.111111  0.222222    0.00137174  32 t-inv F
  0.000000 -0.111111 -0.222222    0.00137174  32 t-inv F
 -0.111111 -0.000000  0.222222    0.00137174  32 t-inv F
  0.111111  0.000000 -0.222222    0.00137174  32 t-inv F
  0.000000 -0.111111  0.222222    0.00137174  32 t-inv F
 -0.000000  0.111111 -0.222222    0.00137174  32 t-inv F
 -0.222222 -0.000000 -0.222222    0.00137174  33 t-inv F
 -0.000000  0.222222  0.222222    0.00137174  33 t-inv F
  0.000000 -0.222222 -0.222222    0.00137174  33 t-inv F
 -0.222222 -0.000000  0.222222    0.00137174  33 t-inv F
  0.222222  0.000000 -0.222222    0.00137174  33 t-inv F
  0.000000 -0.222222  0.222222    0.00137174  33 t-inv F
 -0.000000  0.222222 -0.222222    0.00137174  33 t-inv F
 -0.333333 -0.000000 -0.222222    0.00137174  34 t-inv F
 -0.000000  0.333333  0.222222    0.00137174  34 t-inv F
  0.000000 -0.333333 -0.222222    0.00137174  34 t-inv F
 -0.333333 -0.000000  0.222222    0.00137174  34 t-inv F
  0.333333  0.000000 -0.222222    0.00137174  34 t-inv F
  0.000000 -0.333333  0.222222    0.00137174  34 t-inv F
 -0.000000  0.333333 -0.222222    0.00137174  34 t-inv F
 -0.444444 -0.000000 -0.222222    0.00137174  35 t-inv F
 -0.000000  0.444444  0.222222    0.00137174  35 t-inv F
  0.000000 -0.444444 -0.222222    0.00137174  35 t-inv F
 -0.444444 -0.000000  0.222222    0.00137174  35 t-inv F
  0.444444  0.000000 -0.222222    0.00137174  35 t-inv F
  0.000000 -0.444444  0.222222    0.00137174  35 t-inv F
 -0.000000  0.444444 -0.222222    0.00137174  35 t-inv F
 -0.111111 -0.111111 -0.222222    0.00137174  36 t-inv F
 -0.111111  0.111111  0.222222    0.00137174  36 t-inv F
  0.111111 -0.111111 -0.222222    0.00137174  36 t-inv F
 -0.111111 -0.111111  0.222222    0.00137174  36 t-inv F
  0.111111  0.111111 -0.222222    0.00137174  36 t-inv F
  0.111111 -0.111111  0.222222    0.00137174  36 t-inv F
 -0.111111  0.111111 -0.222222    0.00137174  36 t-inv F
 -0.222222 -0.111111 -0.222222    0.00137174  37 t-inv F
 -0.111111  0.222222  0.222222    0.00137174  37 t-inv F
  0.111111 -0.222222 -0.222222    0.00137174  37 t-inv F
 -0.222222 -0.111111  0.222222    0.00137174  37 t-inv F
  0.222222  0.111111 -0.222222    0.00137174  37 t-inv F
  0.111111 -0.222222  0.222222    0.00137174  37 t-inv F
 -0.111111  0.222222 -0.222222    0.00137174  37 t-inv F
 -0.222222  0.111111 -0.222222    0.00137174  37 t-inv F
  0.222222 -0.111111  0.222222    0.00137174  37 t-inv F
  0.111111  0.222222 -0.222222    0.00137174  37 t-inv F
 -0.111111 -0.222222  0.222222    0.00137174  37 t-inv F
  0.222222 -0.111111 -0.222222    0.00137174  37 t-inv F
 -0.222222  0.111111  0.222222    0.00137174  37 t-inv F
 -0.111111 -0.222222 -0.222222    0.00137174  37 t-inv F
  0.111111  0.222222  0.222222    0.00137174  37 t-inv F
 -0.333333 -0.111111 -0.222222    0.00137174  38 t-inv F
 -0.111111  0.333333  0.222222    0.00137174  38 t-inv F
  0.111111 -0.333333 -0.222222    0.00137174  38 t-inv F
 -0.333333 -0.111111  0.222222    0.00137174  38 t-inv F
  0.333333  0.111111 -0.222222    0.00137174  38 t-inv F
  0.111111 -0.333333  0.222222    0.00137174  38 t-inv F
 -0.111111  0.333333 -0.222222    0.00137174  38 t-inv F
 -0.333333  0.111111 -0.222222    0.00137174  38 t-inv F
  0.333333 -0.111111  0.222222    0.00137174  38 t-inv F
  0.111111  0.333333 -0.222222    0.00137174  38 t-inv F
 -0.111111 -0.333333  0.222222    0.00137174  38 t-inv F
  0.333333 -0.111111 -0.222222    0.00137174  38 t-inv F
 -0.333333  0.111111  0.222222    0.00137174  38 t-inv F
 -0.111111 -0.333333 -0.222222    0.00137174  38 t-inv F
  0.111111  0.333333  0.222222    0.00137174  38 t-inv F
 -0.444444 -0.111111 -0.222222    0.00137174  39 t-inv F
 -0.111111  0.444444  0.222222    0.00137174  39 t-inv F
  0.111111 -0.444444 -0.222222    0.00137174  39 t-inv F
 -0.444444 -0.111111  0.222222    0.00137174  39 t-inv F
  0.444444  0.111111 -0.222222    0.00137174  39 t-inv F
  0.111111 -0.444444  0.222222    0.00137174  39 t-inv F
 -0.111111  0.444444 -0.222222    0.00137174  39 t-inv F
 -0.444444  0.111111 -0.222222    0.00137174  39 t-inv F
  0.444444 -0.111111  0.222222    0.00137174  39 t-inv F
  0.111111  0.444444 -0.222222    0.00137174  39 t-inv F
 -0.111111 -0.444444  0.222222    0.00137174  39 t-inv F
  0.444444 -0.111111 -0.222222    0.00137174  39 t-inv F
 -0.444444  0.111111  0.222222    0.00137174  39 t-inv F
 -0.111111 -0.444444 -0.222222    0.00137174  39 t-inv F
  0.111111  0.444444  0.222222    0.00137174  39 t-inv F
 -0.222222 -0.222222 -0.222222    0.00137174  40 t-inv F
 -0.222222  0.222222  0.222222    0.00137174  40 t-inv F
  0.222222 -0.222222 -0.222222    0.00137174  40 t-inv F
 -0.222222 -0.222222  0.222222    0.00137174  40 t-inv F
  0.222222  0.222222 -0.222222    0.00137174  40 t-inv F
  0.222222 -0.222222  0.222222    0.00137174  40 t-inv F
 -0.222222  0.222222 -0.222222    0.00137174  40 t-inv F
 -0.333333 -0.222222 -0.222222    0.00137174  41 t-inv F
 -0.222222  0.333333  0.222222    0.00137174  41 t-inv F
  0.222222 -0.333333 -0.222222    0.00137174  41 t-inv F
 -0.333333 -0.222222  0.222222    0.00137174  41 t-inv F
  0.333333  0.222222 -0.222222    0.00137174  41 t-inv F
  0.222222 -0.333333  0.222222    0.00137174  41 t-inv F
 -0.222222  0.333333 -0.222222    0.00137174  41 t-inv F
 -0.333333  0.222222 -0.222222    0.00137174  41 t-inv F
  0.333333 -0.222222  0.222222    0.00137174  41 t-inv F
  0.222222  0.333333 -0.222222    0.00137174  41 t-inv F
 -0.222222 -0.333333  0.222222    0.00137174  41 t-inv F
  0.333333 -0.222222 -0.222222    0.00137174  41 t-inv F
 -0.333333  0.222222  0.222222    0.00137174  41 t-inv F
 -0.222222 -0.333333 -0.222222    0.00137174  41 t-inv F
  0.222222  0.333333  0.222222    0.00137174  41 t-inv F
 -0.444444 -0.222222 -0.222222    0.00137174  42 t-inv F
 -0.222222  0.444444  0.222222    0.00137174  42 t-inv F
  0.222222 -0.444444 -0.222222    0.00137174  42 t-inv F
 -0.444444 -0.222222  0.222222    0.00137174  42 t-inv F
  0.444444  0.222222 -0.222222    0.00137174  42 t-inv F
  0.222222 -0.444444  0.222222    0.00137174  42 t-inv F
 -0.222222  0.444444 -0.222222    0.00137174  42 t-inv F
 -0.444444  0.222222 -0.222222    0.00137174  42 t-inv F
  0.444444 -0.222222  0.222222    0.00137174  42 t-inv F
  0.222222  0.444444 -0.222222    0.00137174  42 t-inv F
 -0.222222 -0.444444  0.222222    0.00137174  42 t-inv F
  0.444444 -0.222222 -0.222222    0.00137174  42 t-inv F
 -0.444444  0.222222  0.222222    0.00137174  42 t-inv F
 -0.222222 -0.444444 -0.222222    0.00137174  42 t-inv F
  0.222222  0.444444  0.222222    0.00137174  42 t-inv F
 -0.333333 -0.333333 -0.222222    0.00137174  43 t-inv F
 -0.333333  0.333333  0.222222    0.00137174  43 t-inv F
  0.333333 -0.333333 -0.222222    0.00137174  43 t-inv F
 -0.333333 -0.333333  0.222222    0.00137174  43 t-inv F
  0.333333  0.333333 -0.222222    0.00137174  43 t-inv F
  0.333333 -0.333333  0.222222    0.00137174  43 t-inv F
 -0.333333  0.333333 -0.222222    0.00137174  43 t-inv F
 -0.444444 -0.333333 -0.222222    0.00137174  44 t-inv F
 -0.333333  0.444444  0.222222    0.00137174  44 t-inv F
  0.333333 -0.444444 -0.222222    0.00137174  44 t-inv F
 -0.444444 -0.333333  0.222222    0.00137174  44 t-inv F
  0.444444  0.333333 -0.222222    0.00137174  44 t-inv F
  0.333333 -0.444444  0.222222    0.00137174  44 t-inv F
 -0.333333  0.444444 -0.222222    0.00137174  44 t-inv F
 -0.444444  0.333333 -0.222222    0.00137174  44 t-inv F
  0.444444 -0.333333  0.222222    0.00137174  44 t-inv F
  0.333333  0.444444 -0.222222    0.00137174  44 t-inv F
 -0.333333 -0.444444  0.222222    0.00137174  44 t-inv F
  0.444444 -0.333333 -0.222222    0.00137174  44 t-inv F
 -0.444444  0.333333  0.222222    0.00137174  44 t-inv F
 -0.333333 -0.444444 -0.222222    0.00137174  44 t-inv F
  0.333333  0.444444  0.222222    0.00137174  44 t-inv F
 -0.444444 -0.444444 -0.222222    0.00137174  45 t-inv F
 -0.444444  0.444444  0.222222    0.00137174  45 t-inv F
  0.444444 -0.444444 -0.222222    0.00137174  45 t-inv F
 -0.444444 -0.444444  0.222222    0.00137174  45 t-inv F
  0.444444  0.444444 -0.222222    0.00137174  45 t-inv F
  0.444444 -0.444444  0.222222    0.00137174  45 t-inv F
 -0.444444  0.444444 -0.222222    0.00137174  45 t-inv F
 -0.000000 -0.000000 -0.333333    0.00137174  46 t-inv F
 -0.111111 -0.000000 -0.333333    0.00137174  47 t-inv F
 -0.000000  0.111111  0.333333    0.00137174  47 t-inv F
  0.000000 -0.111111 -0.333333    0.00137174  47 t-inv F
 -0.111111 -0.000000  0.333333    0.00137174  47 t-inv F
  0.111111  0.000000 -0.333333    0.00137174  47 t-inv F
  0.000000 -0.111111  0.333333    0.00137174  47 t-inv F
 -0.000000  0.111111 -0.333333    0.00137174  47 t-inv F
 -0.222222 -0.000000 -0.333333    0.00137174  48 t-inv F
 -0.000000  0.222222  0.333333    0.00137174  48 t-inv F
  0.000000 -0.222222 -0.333333    0.00137174  48 t-inv F
 -0.222222 -0.000000  0.333333    0.00137174  48 t-inv F
  0.222222  0.000000 -0.333333    0.00137174  48 t-inv F
  0.000000 -0.222222  0.333333    0.00137174  48 t-inv F
 -0.000000  0.222222 -0.333333    0.00137174  48 t-inv F
 -0.333333 -0.000000 -0.333333    0.00137174  49 t-inv F
 -0.000000  0.333333  0.333333    0.00137174  49 t-inv F
  0.000000 -0.333333 -0.333333    0.00137174  49 t-inv F
 -0.333333 -0.000000  0.333333    0.00137174  49 t-inv F
  0.333333  0.000000 -0.333333    0.00137174  49 t-inv F
  0.000000 -0.333333  0.333333    0.00137174  49 t-inv F
 -0.000000  0.333333 -0.333333    0.00137174  49 t-inv F
 -0.444444 -0.000000 -0.333333    0.00137174  50 t-inv F
 -0.000000  0.444444  0.333333    0.00137174  50 t-inv F
  0.000000 -0.444444 -0.333333    0.00137174  50 t-inv F
 -0.444444 -0.000000  0.333333    0.00137174  50 t-inv F
  0.444444  0.000000 -0.333333    0.00137174  50 t-inv F
  0.000000 -0.444444  0.333333    0.00137174  50 t-inv F
 -0.000000  0.444444 -0.333333    0.00137174  50 t-inv F
 -0.111111 -0.111111 -0.333333    0.00137174  51 t-inv F
 -0.111111  0.111111  0.333333    0.00137174  51 t-inv F
  0.111111 -0.111111 -0.333333    0.00137174  51 t-inv F
 -0.111111 -0.111111  0.333333    0.00137174  51 t-inv F
  0.111111  0.111111 -0.333333    0.00137174  51 t-inv F
  0.111111 -0.111111  0.333333    0.00137174  51 t-inv F
 -0.111111  0.111111 -0.333333    0.00137174  51 t-inv F
 -0.222222 -0.111111 -0.333333    0.00137174  52 t-inv F
 -0.111111  0.222222  0.333333    0.00137174  52 t-inv F
  0.111111 -0.222222 -0.333333    0.00137174  52 t-inv F
 -0.222222 -0.111111  0.333333    0.00137174  52 t-inv F
  0.222222  0.111111 -0.333333    0.00137174  52 t-inv F
  0.111111 -0.222222  0.333333    0.00137174  52 t-inv F
 -0.111111  0.222222 -0.333333    0.00137174  52 t-inv F
 -0.222222  0.111111 -0.333333    0.00137174  52 t-inv F
  0.222222 -0.111111  0.333333    0.00137174  52 t-inv F
  0.111111  0.222222 -0.333333    0.00137174  52 t-inv F
 -0.111111 -0.222222  0.333333    0.00137174  52 t-inv F
  0.222222 -0.111111 -0.333333    0.00137174  52 t-inv F
 -0.222222  0.111111  0.333333    0.00137174  52 t-inv F
 -0.111111 -0.222222 -0.333333    0.00137174  52 t-inv F
  0.111111  0.222222  0.333333    0.00137174  52 t-inv F
 -0.333333 -0.111111 -0.333333    0.00137174  53 t-inv F
 -0.111111  0.333333  0.333333    0.00137174  53 t-inv F
  0.111111 -0.333333 -0.333333    0.00137174  53 t-inv F
 -0.333333 -0.111111  0.333333    0.00137174  53 t-inv F
  0.333333  0.111111 -0.333333    0.00137174  53 t-inv F
  0.111111 -0.333333  0.333333    0.00137174  53 t-inv F
 -0.111111  0.333333 -0.333333    0.00137174  53 t-inv F
 -0.333333  0.111111 -0.333333    0.00137174  53 t-inv F
  0.333333 -0.111111  0.333333    0.00137174  53 t-inv F
  0.111111  0.333333 -0.333333    0.00137174  53 t-inv F
 -0.111111 -0.333333  0.333333    0.00137174  53 t-inv F
  0.333333 -0.111111 -0.333333    0.00137174  53 t-inv F
 -0.333333  0.111111  0.333333    0.00137174  53 t-inv F
 -0.111111 -0.333333 -0.333333    0.00137174  53 t-inv F
  0.111111  0.333333  0.333333    0.00137174  53 t-inv F
 -0.444444 -0.111111 -0.333333    0.00137174  54 t-inv F
 -0.111111  0.444444  0.333333    0.00137174  54 t-inv F
  0.111111 -0.444444 -0.333333    0.00137174  54 t-inv F
 -0.444444 -0.111111  0.333333    0.00137174  54 t-inv F
  0.444444  0.111111 -0.333333    0.00137174  54 t-inv F
  0.111111 -0.444444  0.333333    0.00137174  54 t-inv F
 -0.111111  0.444444 -0.333333    0.00137174  54 t-inv F
 -0.444444  0.111111 -0.333333    0.00137174  54 t-inv F
  0.444444 -0.111111  0.333333    0.00137174  54 t-inv F
  0.111111  0.444444 -0.333333    0.00137174  54 t-inv F
 -0.111111 -0.444444  0.333333    0.00137174  54 t-inv F
  0.444444 -0.111111 -0.333333    0.00137174  54 t-inv F
 -0.444444  0.111111  0.333333    0.00137174  54 t-inv F
 -0.111111 -0.444444 -0.333333    0.00137174  54 t-inv F
  0.111111  0.444444  0.333333    0.00137174  54 t-inv F
 -0.222222 -0.222222 -0.333333    0.00137174  55 t-inv F
 -0.222222  0.222222  0.333333    0.00137174  55 t-inv F
  0.222222 -0.222222 -0.333333    0.00137174  55 t-inv F
 -0.222222 -0.222222  0.333333    0.00137174  55 t-inv F
  0.222222  0.222222 -0.333333    0.00137174  55 t-inv F
  0.222222 -0.222222  0.333333    0.00137174  55 t-inv F
 -0.222222  0.222222 -0.333333    0.00137174  55 t-inv F
 -0.333333 -0.222222 -0.333333    0.00137174  56 t-inv F
 -0.222222  0.333333  0.333333    0.00137174  56 t-inv F
  0.222222 -0.333333 -0.333333    0.00137174  56 t-inv F
 -0.333333 -0.222222  0.333333    0.00137174  56 t-inv F
  0.333333  0.222222 -0.333333    0.00137174  56 t-inv F
  0.222222 -0.333333  0.333333    0.00137174  56 t-inv F
 -0.222222  0.333333 -0.333333    0.00137174  56 t-inv F
 -0.333333  0.222222 -0.333333    0.00137174  56 t-inv F
  0.333333 -0.222222  0.333333    0.00137174  56 t-inv F
  0.222222  0.333333 -0.333333    0.00137174  56 t-inv F
 -0.222222 -0.333333  0.333333    0.00137174  56 t-inv F
  0.333333 -0.222222 -0.333333    0.00137174  56 t-inv F
 -0.333333  0.222222  0.333333    0.00137174  56 t-inv F
 -0.222222 -0.333333 -0.333333    0.00137174  56 t-inv F
  0.222222  0.333333  0.333333    0.00137174  56 t-inv F
 -0.444444 -0.222222 -0.333333    0.00137174  57 t-inv F
 -0.222222  0.444444  0.333333    0.00137174  57 t-inv F
  0.222222 -0.444444 -0.333333    0.00137174  57 t-inv F
 -0.444444 -0.222222  0.333333    0.00137174  57 t-inv F
  0.444444  0.222222 -0.333333    0.00137174  57 t-inv F
  0.222222 -0.444444  0.333333    0.00137174  57 t-inv F
 -0.222222  0.444444 -0.333333    0.00137174  57 t-inv F
 -0.444444  0.222222 -0.333333    0.00137174  57 t-inv F
  0.444444 -0.222222  0.333333    0.00137174  57 t-inv F
  0.222222  0.444444 -0.333333    0.00137174  57 t-inv F
 -0.222222 -0.444444  0.333333    0.00137174  57 t-inv F
  0.444444 -0.222222 -0.333333    0.00137174  57 t-inv F
 -0.444444  0.222222  0.333333    0.00137174  57 t-inv F
 -0.222222 -0.444444 -0.333333    0.00137174  57 t-inv F
  0.222222  0.444444  0.333333    0.00137174  57 t-inv F
 -0.333333 -0.333333 -0.333333    0.00137174  58 t-inv F
 -0.333333  0.333333  0.333333    0.00137174  58 t-inv F
  0.333333 -0.333333 -0.333333    0.00137174  58 t-inv F
 -0.333333 -0.333333  0.333333    0.00137174  58 t-inv F
  0.333333  0.333333 -0.333333    0.00137174  58 t-inv F
  0.333333 -0.333333  0.333333    0.00137174  58 t-inv F
 -0.333333  0.333333 -0.333333    0.00137174  58 t-inv F
 -0.444444 -0.333333 -0.333333    0.00137174  59 t-inv F
 -0.333333  0.444444  0.333333    0.00137174  59 t-inv F
  0.333333 -0.444444 -0.333333    0.00137174  59 t-inv F
 -0.444444 -0.333333  0.333333    0.00137174  59 t-inv F
  0.444444  0.333333 -0.333333    0.00137174  59 t-inv F
  0.333333 -0.444444  0.333333    0.00137174  59 t-inv F
 -0.333333  0.444444 -0.333333    0.00137174  59 t-inv F
 -0.444444  0.333333 -0.333333    0.00137174  59 t-inv F
  0.444444 -0.333333  0.333333    0.00137174  59 t-inv F
  0.333333  0.444444 -0.333333    0.00137174  59 t-inv F
 -0.333333 -0.444444  0.333333    0.00137174  59 t-inv F
  0.444444 -0.333333 -0.333333    0.00137174  59 t-inv F
 -0.444444  0.333333  0.333333    0.00137174  59 t-inv F
 -0.333333 -0.444444 -0.333333    0.00137174  59 t-inv F
  0.333333  0.444444  0.333333    0.00137174  59 t-inv F
 -0.444444 -0.444444 -0.333333    0.00137174  60 t-inv F
 -0.444444  0.444444  0.333333    0.00137174  60 t-inv F
  0.444444 -0.444444 -0.333333    0.00137174  60 t-inv F
 -0.444444 -0.444444  0.333333    0.00137174  60 t-inv F
  0.444444  0.444444 -0.333333    0.00137174  60 t-inv F
  0.444444 -0.444444  0.333333    0.00137174  60 t-inv F
 -0.444444  0.444444 -0.333333    0.00137174  60 t-inv F
 -0.000000 -0.000000 -0.444444    0.00137174  61 t-inv F
 -0.111111 -0.000000 -0.444444    0.00137174  62 t-inv F
 -0.000000  0.111111  0.444444    0.00137174  62 t-inv F
  0.000000 -0.111111 -0.444444    0.00137174  62 t-inv F
 -0.111111 -0.000000  0.444444    0.00137174  62 t-inv F
  0.111111  0.000000 -0.444444    0.00137174  62 t-inv F
  0.000000 -0.111111  0.444444    0.00137174  62 t-inv F
 -0.000000  0.111111 -0.444444    0.00137174  62 t-inv F
 -0.222222 -0.000000 -0.444444    0.00137174  63 t-inv F
 -0.000000  0.222222  0.444444    0.00137174  63 t-inv F
  0.000000 -0.222222 -0.444444    0.00137174  63 t-inv F
 -0.222222 -0.000000  0.444444    0.00137174  63 t-inv F
  0.222222  0.000000 -0.444444    0.00137174  63 t-inv F
  0.000000 -0.222222  0.444444    0.00137174  63 t-inv F
 -0.000000  0.222222 -0.444444    0.00137174  63 t-inv F
 -0.333333 -0.000000 -0.444444    0.00137174  64 t-inv F
 -0.000000  0.333333  0.444444    0.00137174  64 t-inv F
  0.000000 -0.333333 -0.444444    0.00137174  64 t-inv F
 -0.333333 -0.000000  0.444444    0.00137174  64 t-inv F
  0.333333  0.000000 -0.444444    0.00137174  64 t-inv F
  0.000000 -0.333333  0.444444    0.00137174  64 t-inv F
 -0.000000  0.333333 -0.444444    0.00137174  64 t-inv F
 -0.444444 -0.000000 -0.444444    0.00137174  65 t-inv F
 -0.000000  0.444444  0.444444    0.00137174  65 t-inv F
  0.000000 -0.444444 -0.444444    0.00137174  65 t-inv F
 -0.444444 -0.000000  0.444444    0.00137174  65 t-inv F
  0.444444  0.000000 -0.444444    0.00137174  65 t-inv F
  0.000000 -0.444444  0.444444    0.00137174  65 t-inv F
 -0.000000  0.444444 -0.444444    0.00137174  65 t-inv F
 -0.111111 -0.111111 -0.444444    0.00137174  66 t-inv F
 -0.111111  0.111111  0.444444    0.00137174  66 t-inv F
  0.111111 -0.111111 -0.444444    0.00137174  66 t-inv F
 -0.111111 -0.111111  0.444444    0.00137174  66 t-inv F
  0.111111  0.111111 -0.444444    0.00137174  66 t-inv F
  0.111111 -0.111111  0.444444    0.00137174  66 t-inv F
 -0.111111  0.111111 -0.444444    0.00137174  66 t-inv F
 -0.222222 -0.111111 -0.444444    0.00137174  67 t-inv F
 -0.111111  0.222222  0.444444    0.00137174  67 t-inv F
  0.111111 -0.222222 -0.444444    0.00137174  67 t-inv F
 -0.222222 -0.111111  0.444444    0.00137174  67 t-inv F
  0.222222  0.111111 -0.444444    0.00137174  67 t-inv F
  0.111111 -0.222222  0.444444    0.00137174  67 t-inv F
 -0.111111  0.222222 -0.444444    0.00137174  67 t-inv F
 -0.222222  0.111111 -0.444444    0.00137174  67 t-inv F
  0.222222 -0.111111  0.444444    0.00137174  67 t-inv F
  0.111111  0.222222 -0.444444    0.00137174  67 t-inv F
 -0.111111 -0.222222  0.444444    0.00137174  67 t-inv F
  0.222222 -0.111111 -0.444444    0.00137174  67 t-inv F
 -0.222222  0.111111  0.444444    0.00137174  67 t-inv F
 -0.111111 -0.222222 -0.444444    0.00137174  67 t-inv F
  0.111111  0.222222  0.444444    0.00137174  67 t-inv F
 -0.333333 -0.111111 -0.444444    0.00137174  68 t-inv F
 -0.111111  0.333333  0.444444    0.00137174  68 t-inv F
  0.111111 -0.333333 -0.444444    0.00137174  68 t-inv F
 -0.333333 -0.111111  0.444444    0.00137174  68 t-inv F
  0.333333  0.111111 -0.444444    0.00137174  68 t-inv F
  0.111111 -0.333333  0.444444    0.00137174  68 t-inv F
 -0.111111  0.333333 -0.444444    0.00137174  68 t-inv F
 -0.333333  0.111111 -0.444444    0.00137174  68 t-inv F
  0.333333 -0.111111  0.444444    0.00137174  68 t-inv F
  0.111111  0.333333 -0.444444    0.00137174  68 t-inv F
 -0.111111 -0.333333  0.444444    0.00137174  68 t-inv F
  0.333333 -0.111111 -0.444444    0.00137174  68 t-inv F
 -0.333333  0.111111  0.444444    0.00137174  68 t-inv F
 -0.111111 -0.333333 -0.444444    0.00137174  68 t-inv F
  0.111111  0.333333  0.444444    0.00137174  68 t-inv F
 -0.444444 -0.111111 -0.444444    0.00137174  69 t-inv F
 -0.111111  0.444444  0.444444    0.00137174  69 t-inv F
  0.111111 -0.444444 -0.444444    0.00137174  69 t-inv F
 -0.444444 -0.111111  0.444444    0.00137174  69 t-inv F
  0.444444  0.111111 -0.444444    0.00137174  69 t-inv F
  0.111111 -0.444444  0.444444    0.00137174  69 t-inv F
 -0.111111  0.444444 -0.444444    0.00137174  69 t-inv F
 -0.444444  0.111111 -0.444444    0.00137174  69 t-inv F
  0.444444 -0.111111  0.444444    0.00137174  69 t-inv F
  0.111111  0.444444 -0.444444    0.00137174  69 t-inv F
 -0.111111 -0.444444  0.444444    0.00137174  69 t-inv F
  0.444444 -0.111111 -0.444444    0.00137174  69 t-inv F
 -0.444444  0.111111  0.444444    0.00137174  69 t-inv F
 -0.111111 -0.444444 -0.444444    0.00137174  69 t-inv F
  0.111111  0.444444  0.444444    0.00137174  69 t-inv F
 -0.222222 -0.222222 -0.444444    0.00137174  70 t-inv F
 -0.222222  0.222222  0.444444    0.00137174  70 t-inv F
  0.222222 -0.222222 -0.444444    0.00137174  70 t-inv F
 -0.222222 -0.222222  0.444444    0.00137174  70 t-inv F
  0.222222  0.222222 -0.444444    0.00137174  70 t-inv F
  0.222222 -0.222222  0.444444    0.00137174  70 t-inv F
 -0.222222  0.222222 -0.444444    0.00137174  70 t-inv F
 -0.333333 -0.222222 -0.444444    0.00137174  71 t-inv F
 -0.222222  0.333333  0.444444    0.00137174  71 t-inv F
  0.222222 -0.333333 -0.444444    0.00137174  71 t-inv F
 -0.333333 -0.222222  0.444444    0.00137174  71 t-inv F
  0.333333  0.222222 -0.444444    0.00137174  71 t-inv F
  0.222222 -0.333333  0.444444    0.00137174  71 t-inv F
 -0.222222  0.333333 -0.444444    0.00137174  71 t-inv F
 -0.333333  0.222222 -0.444444    0.00137174  71 t-inv F
  0.333333 -0.222222  0.444444    0.00137174  71 t-inv F
  0.222222  0.333333 -0.444444    0.00137174  71 t-inv F
 -0.222222 -0.333333  0.444444    0.00137174  71 t-inv F
  0.333333 -0.222222 -0.444444    0.00137174  71 t-inv F
 -0.333333  0.222222  0.444444    0.00137174  71 t-inv F
 -0.222222 -0.333333 -0.444444    0.00137174  71 t-inv F
  0.222222  0.333333  0.444444    0.00137174  71 t-inv F
 -0.444444 -0.222222 -0.444444    0.00137174  72 t-inv F
 -0.222222  0.444444  0.444444    0.00137174  72 t-inv F
  0.222222 -0.444444 -0.444444    0.00137174  72 t-inv F
 -0.444444 -0.222222  0.444444    0.00137174  72 t-inv F
  0.444444  0.222222 -0.444444    0.00137174  72 t-inv F
  0.222222 -0.444444  0.444444    0.00137174  72 t-inv F
 -0.222222  0.444444 -0.444444    0.00137174  72 t-inv F
 -0.444444  0.222222 -0.444444    0.00137174  72 t-inv F
  0.444444 -0.222222  0.444444    0.00137174  72 t-inv F
  0.222222  0.444444 -0.444444    0.00137174  72 t-inv F
 -0.222222 -0.444444  0.444444    0.00137174  72 t-inv F
  0.444444 -0.222222 -0.444444    0.00137174  72 t-inv F
 -0.444444  0.222222  0.444444    0.00137174  72 t-inv F
 -0.222222 -0.444444 -0.444444    0.00137174  72 t-inv F
  0.222222  0.444444  0.444444    0.00137174  72 t-inv F
 -0.333333 -0.333333 -0.444444    0.00137174  73 t-inv F
 -0.333333  0.333333  0.444444    0.00137174  73 t-inv F
  0.333333 -0.333333 -0.444444    0.00137174  73 t-inv F
 -0.333333 -0.333333  0.444444    0.00137174  73 t-inv F
  0.333333  0.333333 -0.444444    0.00137174  73 t-inv F
  0.333333 -0.333333  0.444444    0.00137174  73 t-inv F
 -0.333333  0.333333 -0.444444    0.00137174  73 t-inv F
 -0.444444 -0.333333 -0.444444    0.00137174  74 t-inv F
 -0.333333  0.444444  0.444444    0.00137174  74 t-inv F
  0.333333 -0.444444 -0.444444    0.00137174  74 t-inv F
 -0.444444 -0.333333  0.444444    0.00137174  74 t-inv F
  0.444444  0.333333 -0.444444    0.00137174  74 t-inv F
  0.333333 -0.444444  0.444444    0.00137174  74 t-inv F
 -0.333333  0.444444 -0.444444    0.00137174  74 t-inv F
 -0.444444  0.333333 -0.444444    0.00137174  74 t-inv F
  0.444444 -0.333333  0.444444    0.00137174  74 t-inv F
  0.333333  0.444444 -0.444444    0.00137174  74 t-inv F
 -0.333333 -0.444444  0.444444    0.00137174  74 t-inv F
  0.444444 -0.333333 -0.444444    0.00137174  74 t-inv F
 -0.444444  0.333333  0.444444    0.00137174  74 t-inv F
 -0.333333 -0.444444 -0.444444    0.00137174  74 t-inv F
  0.333333  0.444444  0.444444    0.00137174  74 t-inv F
 -0.444444 -0.444444 -0.444444    0.00137174  75 t-inv F
 -0.444444  0.444444  0.444444    0.00137174  75 t-inv F
  0.444444 -0.444444 -0.444444    0.00137174  75 t-inv F
 -0.444444 -0.444444  0.444444    0.00137174  75 t-inv F
  0.444444  0.444444 -0.444444    0.00137174  75 t-inv F
  0.444444 -0.444444  0.444444    0.00137174  75 t-inv F
 -0.444444  0.444444 -0.444444    0.00137174  75 t-inv F


--------------------------------------------------------------------------------------------------------




 Dimension of arrays:
   k-points           NKPTS =     75   k-points in BZ     NKDIM =     75   number of bands    NBANDS=     60
   number of dos      NEDOS =    101   number of ions     NIONS =      4
   non local maximal  LDIM  =      6   non local SUM 2l+1 LMDIM =     18
   total plane-waves  NPLWV =  25200
   max r-space proj   IRMAX =      1   max aug-charges    IRDMAX=  39665
   dimension x,y,z NGX =    30 NGY =   30 NGZ =   28
   dimension x,y,z NGXF=    60 NGYF=   60 NGZF=   56
   support grid    NGXF=    60 NGYF=   60 NGZF=   56
   ions per type =               1   1   2
   NGX,Y,Z   is equivalent  to a cutoff of  12.72, 12.72, 14.06 a.u.
   NGXF,Y,Z  is equivalent  to a cutoff of  25.45, 25.45, 28.13 a.u.

 SYSTEM =  NdNiO2                                  
 POSCAR =  NdNiO2                                  

 Startparameter for this run:
   NWRITE =      2    write-flag & timer
   PREC   = accura    normal or accurate (medium, high low for compatibility)
   ISTART =      0    job   : 0-new  1-cont  2-samecut
   ICHARG =      2    charge: 1-file 2-atom 10-const
   ISPIN  =      1    spin polarized calculation?
   LNONCOLLINEAR =      F non collinear calculations
   LSORBIT =      F    spin-orbit coupling
   INIWAV =      1    electr: 0-lowe 1-rand  2-diag
   LASPH  =      F    aspherical Exc in radial PAW
   METAGGA=      F    non-selfconsistent MetaGGA calc.

 Electronic Relaxation 1
   ENCUT  =  550.0 eV  40.42 Ry    6.36 a.u.   7.50  7.50  6.33*2*pi/ulx,y,z
   ENINI  =  550.0     initial cutoff
   ENAUG  =  703.4 eV  augmentation charge cutoff
   NELM   =     60;   NELMIN=  2; NELMDL=  0     # of ELM steps 
   EDIFF  = 0.1E-07   stopping-criterion for ELM
   LREAL  =      F    real-space projection
   NLSPLINE    = F    spline interpolate recip. space projectors
   LCOMPAT=      F    compatible to vasp.4.4
   GGA_COMPAT  = T    GGA compatible to vasp.4.4-vasp.4.6
   LMAXPAW     = -100 max onsite density
   LMAXMIX     =    6 max onsite mixed and CHGCAR
   VOSKOWN=      0    Vosko Wilk Nusair interpolation
   ROPT   =    0.00000   0.00000   0.00000
 Ionic relaxation
   EDIFFG = -.1E-02   stopping-criterion for IOM
   NSW    =      0    number of steps for IOM
   NBLOCK =      1;   KBLOCK =      1    inner block; outer block 
   IBRION =     -1    ionic relax: 0-MD 1-quasi-New 2-CG
   NFREE  =      0    steps in history (QN), initial steepest desc. (CG)
   ISIF   =      3    stress and relaxation
   IWAVPR =     10    prediction:  0-non 1-charg 2-wave 3-comb
   ISYM   =      2    0-nonsym 1-usesym 2-fastsym
   LCORR  =      T    Harris-Foulkes like correction to forces

   POTIM  = 0.5000    time-step for ionic-motion
   TEIN   =    0.0    initial temperature
   TEBEG  =    0.0;   TEEND  =   0.0 temperature during run
   SMASS  =  -3.00    Nose mass-parameter (am)
   estimated Nose-frequenzy (Omega)   =  0.10E-29 period in steps = 0.13E+47 mass=  -0.351E-27a.u.
   SCALEE = 1.0000    scale energy and forces
   NPACO  =    256;   APACO  = 16.0  distance and # of slots for P.C.
   PSTRESS=    0.0 pullay stress

  Mass of Ions in am
   POMASS = 144.24 58.69 16.00
  Ionic Valenz
   ZVAL   =  11.00 16.00  6.00
  Atomic Wigner-Seitz radii
   RWIGS  =  -1.00 -1.00 -1.00
  virtual crystal weights 
   VCA    =   1.00  1.00  1.00
   NELECT =      39.0000    total number of electrons
   NUPDOWN=      -1.0000    fix difference up-down

 DOS related values:
   EMIN   =  -5.00;   EMAX   = 15.00  energy-range for DOS
   EFERMI =   0.00
   ISMEAR =     2;   SIGMA  =   0.01  broadening in eV -4-tet -1-fermi 0-gaus

 Electronic relaxation 2 (details)
   IALGO  =     38    algorithm
   LDIAG  =      T    sub-space diagonalisation (order eigenvalues)
   LSUBROT=      F    optimize rotation matrix (better conditioning)
   TURBO    =      0    0=normal 1=particle mesh
   IRESTART =      0    0=no restart 2=restart with 2 vectors
   NREBOOT  =      0    no. of reboots
   NMIN     =      0    reboot dimension
   EREF     =   0.00    reference energy to select bands
   IMIX   =      4    mixing-type and parameters
     AMIX     =   0.40;   BMIX     =  1.00
     AMIX_MAG =   1.60;   BMIX_MAG =  1.00
     AMIN     =   0.10
     WC   =   100.;   INIMIX=   1;  MIXPRE=   1;  MAXMIX= -45

 Intra band minimization:
   WEIMIN = 0.0000     energy-eigenvalue tresh-hold
   EBREAK =  0.42E-10  absolut break condition
   DEPER  =   0.30     relativ break condition  

   TIME   =   0.40     timestep for ELM

  volume/ion in A,a.u.               =      12.72        85.81
  Fermi-wavevector in a.u.,A,eV,Ry     =   1.498407  2.831579 30.548135  2.245225
  Thomas-Fermi vector in A             =   2.610170

 Write flags
   LWAVE        =      T    write WAVECAR
   LDOWNSAMPLE  =      F    k-point downsampling of WAVECAR
   LCHARG       =      T    write CHGCAR
   LVTOT        =      F    write LOCPOT, total local potential
   LVHAR        =      F    write LOCPOT, Hartree potential only
   LELF         =      F    write electronic localiz. function (ELF)
   LORBIT       =     14    0 simple, 1 ext, 2 COOP (PROOUT), +10 PAW based schemes


 Dipole corrections
   LMONO  =      F    monopole corrections only (constant potential shift)
   LDIPOL =      F    correct potential (dipole corrections)
   IDIPOL =      0    1-x, 2-y, 3-z, 4-all directions 
   EPSILON=  1.0000000 bulk dielectric constant

 Exchange correlation treatment:
   GGA     =    --    GGA type
   LEXCH   =     8    internal setting for exchange type
   VOSKOWN=      0    Vosko Wilk Nusair interpolation
   LHFCALC =     F    Hartree Fock is set to
   LHFONE  =     F    Hartree Fock one center treatment
   AEXX    =    0.0000 exact exchange contribution

 Linear response parameters
   LEPSILON=     F    determine dielectric tensor
   LRPA    =     F    only Hartree local field effects (RPA)
   LNABLA  =     F    use nabla operator in PAW spheres
   LVEL    =     F    velocity operator in full k-point grid
   LINTERFAST=   F  fast interpolation
   KINTER  =     0    interpolate to denser k-point grid
   CSHIFT  =0.1000    complex shift for real part using Kramers Kronig
   OMEGAMAX=  -1.0    maximum frequency
   DEG_THRESHOLD= 0.2000000E-02 threshold for treating states as degnerate
   RTIME   =   -0.100 relaxation time in fs
  (WPLASMAI=    0.000 imaginary part of plasma frequency in eV, 0.658/RTIME)
   DFIELD  = 0.0000000 0.0000000 0.0000000 field for delta impulse in time

 Orbital magnetization related:
   ORBITALMAG=     F  switch on orbital magnetization
   LCHIMAG   =     F  perturbation theory with respect to B field
   DQ        =  0.001000  dq finite difference perturbation B field
   LLRAUG    =     F  two centre corrections for induced B field



--------------------------------------------------------------------------------------------------------


 Static calculation
 charge density and potential will be updated during run
 non-spin polarized calculation
 Variant of blocked Davidson
 Davidson routine will perform the subspace rotation
 perform sub-space diagonalisation
    after iterative eigenvector-optimisation
 modified Broyden-mixing scheme, WC =      100.0
 initial mixing is a Kerker type mixing with AMIX =  0.4000 and BMIX =      1.0000
 Hartree-type preconditioning will be used
 using additional bands           40
 reciprocal scheme for non local part
 use partial core corrections
 calculate Harris-corrections to forces   (improved forces if not selfconsistent)
 use gradient corrections 
 use of overlap-Matrix (Vanderbilt PP)
 Methfessel and Paxton  Order N= 2 SIGMA  =   0.01


--------------------------------------------------------------------------------------------------------


  energy-cutoff  :      550.00
  volume of cell :       50.86
      direct lattice vectors                 reciprocal lattice vectors
     3.919997931  0.000000000  0.000000000     0.255102175  0.000000000  0.000000000
     0.000000000  3.919997931  0.000000000     0.000000000  0.255102175  0.000000000
     0.000000000  0.000000000  3.309998035     0.000000000  0.000000000  0.302114983

  length of vectors
     3.919997931  3.919997931  3.309998035     0.255102175  0.255102175  0.302114983



 k-points in units of 2pi/SCALE and weight: Automatic Mesh                          
   0.00000000  0.00000000  0.00000000       0.001
   0.02834469  0.00000000  0.00000000       0.005
   0.05668937  0.00000000  0.00000000       0.005
   0.08503406  0.00000000  0.00000000       0.005
   0.11337874  0.00000000  0.00000000       0.005
   0.02834469  0.02834469  0.00000000       0.005
   0.05668937  0.02834469  0.00000000       0.011
   0.08503406  0.02834469  0.00000000       0.011
   0.11337874  0.02834469  0.00000000       0.011
   0.05668937  0.05668937  0.00000000       0.005
   0.08503406  0.05668937  0.00000000       0.011
   0.11337874  0.05668937  0.00000000       0.011
   0.08503406  0.08503406  0.00000000       0.005
   0.11337874  0.08503406  0.00000000       0.011
   0.11337874  0.11337874  0.00000000       0.005
   0.00000000  0.00000000  0.03356833       0.003
   0.02834469  0.00000000  0.03356833       0.011
   0.05668937  0.00000000  0.03356833       0.011
   0.08503406  0.00000000  0.03356833       0.011
   0.11337874  0.00000000  0.03356833       0.011
   0.02834469  0.02834469  0.03356833       0.011
   0.05668937  0.02834469  0.03356833       0.022
   0.08503406  0.02834469  0.03356833       0.022
   0.11337874  0.02834469  0.03356833       0.022
   0.05668937  0.05668937  0.03356833       0.011
   0.08503406  0.05668937  0.03356833       0.022
   0.11337874  0.05668937  0.03356833       0.022
   0.08503406  0.08503406  0.03356833       0.011
   0.11337874  0.08503406  0.03356833       0.022
   0.11337874  0.11337874  0.03356833       0.011
   0.00000000  0.00000000  0.06713666       0.003
[...]
     59      45.4702      0.00000
     60      46.2486      0.00000

 k-point    72 :       0.4444    0.2222    0.4444
  band No.  band energies     occupation 
      1     -57.3623      2.00000
      2     -57.3623      2.00000
      3     -56.9627      2.00000
      4     -31.9897      2.00000
      5     -14.7284      2.00000
      6     -13.5441      2.00000
      7     -13.1430      2.00000
      8     -12.8477      2.00000
      9     -12.0331      2.00000
     10      -0.7723      2.00000
     11       0.3207      2.00000
     12       0.5923      2.00000
     13       0.7269      2.00000
     14       1.5717      2.00000
     15       2.4280      2.00000
     16       4.3795      2.00000
     17       5.4103      2.00000
     18       5.4771      2.00000
     19       5.5291      2.00000
     20       6.9389      0.00000
     21       7.2060      0.00000
     22       9.8894      0.00000
     23      10.9068      0.00000
     24      11.2911      0.00000
     25      11.5416      0.00000
     26      12.3038      0.00000
     27      15.7554      0.00000
     28      16.4915      0.00000
     29      18.9176      0.00000
     30      19.0981      0.00000
     31      19.5220      0.00000
     32      19.8457      0.00000
     33      20.7062      0.00000
     34      22.4536      0.00000
     35      25.7199      0.00000
     36      27.7210      0.00000
     37      27.8111      0.00000
     38      28.7790      0.00000
     39      30.1149      0.00000
     40      30.4143      0.00000
     41      31.4499      0.00000
     42      32.0253      0.00000
     43      32.3539      0.00000
     44      32.7684      0.00000
     45      33.6456      0.00000
     46      34.5183      0.00000
     47      35.2576      0.00000
     48      36.6134      0.00000
     49      37.7963      0.00000
     50      38.0498      0.00000
     51      38.7590      0.00000
     52      39.8653      0.00000
     53      41.0308      0.00000
     54      42.4641      0.00000
     55      43.2947      0.00000
     56      43.8437      0.00000
     57      44.5088      0.00000
     58      44.8490      0.00000
     59      46.0084      0.00000
     60      46.5297      0.00000

 k-point    73 :       0.3333    0.3333    0.4444
  band No.  band energies     occupation 
      1     -57.3623      2.00000
      2     -57.3623      2.00000
      3     -56.9627      2.00000
      4     -31.9874      2.00000
      5     -14.6846      2.00000
      6     -13.3945      2.00000
      7     -13.3053      2.00000
      8     -12.7020      2.00000
      9     -12.2872      2.00000
     10      -0.8748      2.00000
     11       0.3879      2.00000
     12       0.6536      2.00000
     13       1.0913      2.00000
     14       1.2148      2.00000
     15       2.4655      2.00000
     16       4.5348      2.00000
     17       5.3033      2.00000
     18       5.4712      2.00000
     19       5.5946      2.00000
     20       6.6979      0.00000
     21       7.5384      0.00000
     22      10.0139      0.00000
     23      10.3379      0.00000
     24      11.2997      0.00000
     25      11.3675      0.00000
     26      13.6276      0.00000
     27      15.6870      0.00000
     28      16.8574      0.00000
     29      16.9947      0.00000
     30      19.0774      0.00000
     31      19.7183      0.00000
     32      20.2178      0.00000
     33      20.9652      0.00000
     34      22.5060      0.00000
     35      25.3507      0.00000
     36      27.1965      0.00000
     37      27.8819      0.00000
     38      28.7487      0.00000
     39      29.5239      0.00000
     40      30.6882      0.00000
     41      31.0154      0.00000
     42      31.3683      0.00000
     43      32.2398      0.00000
     44      33.3997      0.00000
     45      33.5422      0.00000
     46      35.1284      0.00000
     47      37.3209      0.00000
     48      37.4394      0.00000
     49      37.9046      0.00000
     50      38.3841      0.00000
     51      38.8950      0.00000
     52      39.8435      0.00000
     53      40.2844      0.00000
     54      40.8447      0.00000
     55      42.0681      0.00000
     56      44.6784      0.00000
     57      45.0486      0.00000
     58      45.2813      0.00000
     59      45.8853      0.00000
     60      46.2706      0.00000

 k-point    74 :       0.4444    0.3333    0.4444
  band No.  band energies     occupation 
      1     -57.3624      2.00000
      2     -57.3623      2.00000
      3     -56.9627      2.00000
      4     -31.9829      2.00000
      5     -14.4577      2.00000
      6     -13.5126      2.00000
      7     -13.3172      2.00000
      8     -12.7916      2.00000
      9     -12.4199      2.00000
     10      -1.0926      2.00000
     11       0.3992      2.00000
     12       0.6779      2.00000
     13       1.1066      2.00000
     14       1.4645      2.00000
     15       2.7574      2.00000
     16       4.5459      2.00000
     17       5.4758      2.00000
     18       5.5373      2.00000
     19       5.6863      2.00000
     20       6.3123      1.77749
     21       7.8195      0.00000
     22       9.6208      0.00000
     23      10.0783      0.00000
     24      11.2352      0.00000
     25      11.7607      0.00000
     26      13.7205      0.00000
     27      16.1906      0.00000
     28      16.5149      0.00000
     29      17.6145      0.00000
     30      18.7049      0.00000
     31      19.4604      0.00000
     32      19.9112      0.00000
     33      20.4075      0.00000
     34      22.9465      0.00000
     35      25.5862      0.00000
     36      26.8370      0.00000
     37      27.4655      0.00000
     38      29.1546      0.00000
     39      29.4159      0.00000
     40      30.0837      0.00000
     41      30.3009      0.00000
     42      31.4981      0.00000
     43      33.1265      0.00000
     44      33.7750      0.00000
     45      34.1593      0.00000
     46      35.2671      0.00000
     47      35.8386      0.00000
     48      36.6918      0.00000
     49      37.7990      0.00000
     50      38.3779      0.00000
     51      38.8450      0.00000
     52      39.8591      0.00000
     53      40.3313      0.00000
     54      41.7023      0.00000
     55      42.3955      0.00000
     56      43.8560      0.00000
     57      44.7839      0.00000
     58      45.0973      0.00000
     59      45.2424      0.00000
     60      46.1392      0.00000

 k-point    75 :       0.4444    0.4444    0.4444
  band No.  band energies     occupation 
      1     -57.3624      2.00000
      2     -57.3624      2.00000
      3     -56.9627      2.00000
      4     -31.9784      2.00000
      5     -14.1907      2.00000
      6     -13.5010      2.00000
      7     -13.4667      2.00000
      8     -12.7627      2.00000
      9     -12.7022      2.00000
     10      -1.3275      2.00000
     11       0.3415      2.00000
     12       0.8200      2.00000
     13       1.3921      2.00000
     14       1.4066      2.00000
     15       3.0925      2.00000
     16       4.6336      2.00000
     17       5.5731      2.00000
     18       5.5750      2.00000
     19       5.7901      2.00000
     20       5.9303      2.00000
     21       8.2227      0.00000
     22       9.4021      0.00000
     23       9.4741      0.00000
     24      11.1452      0.00000
     25      12.0709      0.00000
     26      14.9212      0.00000
     27      16.5362      0.00000
     28      16.6434      0.00000
     29      16.6657      0.00000
     30      17.4515      0.00000
     31      19.7854      0.00000
     32      20.1098      0.00000
     33      20.1597      0.00000
     34      24.0445      0.00000
     35      25.5917      0.00000
     36      26.6081      0.00000
     37      26.7035      0.00000
     38      27.9172      0.00000
     39      28.1261      0.00000
     40      29.2759      0.00000
     41      30.7075      0.00000
     42      32.6096      0.00000
     43      33.8623      0.00000
     44      34.1252      0.00000
     45      35.0805      0.00000
     46      36.1019      0.00000
     47      36.4514      0.00000
     48      37.8025      0.00000
     49      37.9983      0.00000
     50      38.1722      0.00000
     51      38.7717      0.00000
     52      39.4515      0.00000
     53      39.4669      0.00000
     54      40.1092      0.00000
     55      41.0255      0.00000
     56      41.7899      0.00000
     57      43.9491      0.00000
     58      44.8590      0.00000
     59      46.3626      0.00000
     60      46.6755      0.00000


--------------------------------------------------------------------------------------------------------


 soft charge-density along one line, spin component           1
         0         1         2         3         4         5         6         7         8         9
 total charge-density along one line

 pseudopotential strength for first ion, spin component:           1
-13.951  -6.154  -0.000  -0.000   0.000   0.000   0.000  -0.000
 -6.154  -0.160  -0.000  -0.000   0.000   0.000   0.000  -0.000
 -0.000  -0.000 -13.581  -0.000  -0.000   4.380   0.000   0.000
 -0.000  -0.000  -0.000 -13.586  -0.000   0.000   4.395   0.000
  0.000   0.000  -0.000  -0.000 -13.581   0.000   0.000   4.380
  0.000   0.000   4.380   0.000   0.000   8.507  -0.000  -0.000
  0.000   0.000   0.000   4.395   0.000  -0.000   8.502  -0.000
 -0.000  -0.000   0.000   0.000   4.380  -0.000  -0.000   8.507
 -0.000  -0.000   0.000  -0.000  -0.000  -0.000   0.000   0.000
 -0.000  -0.000  -0.000  -0.000  -0.000   0.000   0.000   0.000
 -0.000  -0.004   0.000  -0.000  -0.000  -0.000   0.000   0.000
 -0.000  -0.000  -0.000  -0.000  -0.000   0.000   0.000   0.000
  0.000   0.000   0.000  -0.000   0.000  -0.000   0.000  -0.000
 -0.000  -0.000   0.000  -0.000  -0.000  -0.000   0.000   0.000
 -0.000  -0.000  -0.000  -0.000  -0.000   0.000   0.000   0.000
 -0.001  -0.006   0.000  -0.000  -0.000  -0.000   0.000   0.000
 -0.000  -0.000  -0.000  -0.000  -0.000   0.000   0.000   0.000
  0.000   0.000   0.000  -0.000   0.000  -0.000   0.000  -0.000
 total augmentation occupancy for first ion, spin component:           1
  1.997  -0.027   0.000   0.000   0.000   0.000   0.000   0.000   0.000   0.000   0.005   0.000   0.000   0.000   0.000  -0.003
 -0.027   0.603   0.000   0.000   0.000   0.000   0.000   0.000   0.000   0.000   0.195   0.000   0.000   0.000  -0.000  -0.105
  0.000   0.000   2.007   0.000   0.000  -0.024  -0.000   0.000   0.000   0.000   0.000   0.000   0.000   0.000   0.000   0.000
  0.000   0.000   0.000   2.008   0.000   0.000  -0.024   0.000   0.000   0.000   0.000   0.000   0.000   0.000   0.000   0.000
  0.000   0.000   0.000   0.000   2.007   0.000   0.000  -0.024   0.000   0.000   0.000   0.000   0.000   0.000   0.000   0.000
  0.000   0.000  -0.024   0.000   0.000   0.045   0.000   0.000   0.000   0.000   0.000   0.000   0.000   0.000   0.000   0.000
  0.000   0.000   0.000  -0.024   0.000   0.000   0.054   0.000   0.000   0.000   0.000   0.000   0.000   0.000   0.000   0.000
  0.000   0.000   0.000   0.000  -0.024   0.000   0.000   0.045   0.000   0.000   0.000   0.000   0.000   0.000   0.000   0.000
  0.000   0.000   0.000   0.000   0.000   0.000   0.000   0.000   1.608   0.000   0.000  -0.000  -0.000  -0.781   0.000   0.000
  0.000   0.000   0.000   0.000   0.000   0.000   0.000   0.000   0.000   3.000  -0.000   0.000  -0.000   0.000  -1.653   0.000
  0.005   0.195   0.000   0.000   0.000   0.000   0.000   0.000   0.000  -0.000   1.530  -0.000   0.000   0.000   0.000  -0.766
  0.000   0.000   0.000   0.000   0.000   0.000   0.000   0.000   0.000   0.000   0.000   3.000   0.000   0.000   0.000   0.000
  0.000   0.000   0.000   0.000   0.000   0.000   0.000   0.000  -0.000  -0.000   0.000   0.000   2.375  -0.000   0.000   0.000
  0.000   0.000   0.000   0.000   0.000   0.000   0.000   0.000  -0.781   0.000   0.000   0.000  -0.000   0.386   0.000   0.000
  0.000  -0.000   0.000   0.000   0.000   0.000   0.000   0.000   0.000  -1.653  -0.000   0.000   0.000   0.000   0.920   0.000
 -0.003  -0.105   0.000   0.000   0.000   0.000   0.000   0.000   0.000   0.000  -0.766  -0.000   0.000   0.000   0.000   0.394
  0.000  -0.000   0.000   0.000   0.000   0.000   0.000   0.000   0.000   0.000  -0.000  -1.653   0.000   0.000   0.000   0.000
  0.000   0.000   0.000   0.000   0.000   0.000   0.000   0.000  -0.000   0.000   0.000   0.000  -1.279   0.000  -0.000   0.000


------------------------ aborting loop because EDIFF is reached ----------------------------------------


 Computing MMN

 optimized coefficients for linear combined projectors, energy window      -5.00     15.00
 species Nd NT=   1 L=   0     0.116    -0.389
 species Nd NT=   1 L=   1     0.675    -0.681
 species Nd NT=   1 L=   2     0.755     0.957
 species Ni NT=   2 L=   1     0.091    -0.852
 species Ni NT=   2 L=   2     0.953     0.975
 species Ni NT=   2 L=   0     0.493     0.945
 species O  NT=   3 L=   0     0.860    -0.994
 species O  NT=   3 L=   1     0.852    -0.946



 total charge

# of ion       s       p       d       tot
------------------------------------------
    1        2.071   5.881   0.773   8.725
    2        0.253   6.195   8.070  14.518
    3        1.555   3.443   0.000   4.999
    4        1.555   3.443   0.000   4.999
--------------------------------------------------
tot          5.435  18.962   8.843  33.240

    CHARGE:  cpu time    0.0527: real time    0.0529
    FORLOC:  cpu time    0.0013: real time    0.0013
    FORNL :  cpu time    0.3802: real time    0.3811
    STRESS:  cpu time    2.9051: real time    2.9125
    FORCOR:  cpu time    0.0143: real time    0.0143
    FORHAR:  cpu time    0.0047: real time    0.0047
    MIXING:  cpu time    0.0010: real time    0.0010
    OFIELD:  cpu time    0.0000: real time    0.0000

  FORCE on cell =-STRESS in cart. coord.  units (eV):
  Direction    XX          YY          ZZ          XY          YZ          ZX
  --------------------------------------------------------------------------------------
  Alpha Z   302.69457   302.69457   302.69457
  Ewald    -955.58684  -955.58684 -1659.83682     0.00000    -0.00000    -0.00000
  Hartree   704.75897   704.75897   218.73596    -0.00000    -0.00000    -0.00000
  E(xc)    -220.38387  -220.38387  -221.07039    -0.00000     0.00000     0.00000
  Local    -469.42575  -469.42575   702.80863     0.00000     0.00000     0.00000
  n-local  -173.66762  -175.67529  -176.67435     0.68964    -1.35640    -1.34887
  augment   194.34245   194.34245   201.58043     0.00000     0.00000    -0.00000
  Kinetic   612.51317   622.83764   631.57656    -1.45308    -2.49958    -2.06334
  Fock        0.00000     0.00000     0.00000     0.00000     0.00000     0.00000
  -------------------------------------------------------------------------------------
  Total      -0.59652    -0.59652    -0.18540     0.00000     0.00000    -0.00000
  in kB     -18.79039   -18.79039    -5.84018     0.00000     0.00000    -0.00000
  external pressure =      -14.47 kB  Pullay stress =        0.00 kB


 VOLUME and BASIS-vectors are now :
 -----------------------------------------------------------------------------
  energy-cutoff  :      550.00
  volume of cell :       50.86
      direct lattice vectors                 reciprocal lattice vectors
     3.919997931  0.000000000  0.000000000     0.255102175  0.000000000  0.000000000
     0.000000000  3.919997931  0.000000000     0.000000000  0.255102175  0.000000000
     0.000000000  0.000000000  3.309998035     0.000000000  0.000000000  0.302114983

  length of vectors
     3.919997931  3.919997931  3.309998035     0.255102175  0.255102175  0.302114983


 FORCES acting on ions
    electron-ion (+dipol)            ewald-force                    non-local-force                 convergence-correction
 -----------------------------------------------------------------------------------------------
   0.210E-13 0.593E-14 -.131E-13   -.140E-13 -.104E-13 -.954E-14   0.119E-25 -.142E-25 -.117E-26   -.899E-14 0.794E-14 0.162E-13
   0.590E-12 0.910E-11 0.221E-11   0.122E-13 0.106E-13 -.207E-14   0.716E-25 -.119E-24 0.113E-26   -.793E-13 0.182E-12 -.377E-12
   0.920E-13 0.115E-12 0.127E-12   -.430E-14 0.740E-14 0.441E-14   -.163E-25 0.191E-25 0.327E-27   0.658E-13 0.185E-13 -.705E-13
   0.120E-12 0.248E-13 -.277E-12   0.528E-14 -.811E-14 0.439E-14   -.734E-26 0.150E-25 -.254E-26   -.798E-14 0.130E-14 -.405E-13
 -----------------------------------------------------------------------------------------------
   0.824E-12 0.924E-11 0.205E-11   -.794E-15 -.510E-15 -.281E-14   0.599E-25 -.989E-25 -.225E-26   -.306E-13 0.210E-12 -.471E-12


 POSITION                                       TOTAL-FORCE (eV/Angst)
 -----------------------------------------------------------------------------------
      0.00000      0.00000      0.00000         0.000000     -0.000000     -0.000000
      1.96000      1.96000      1.65500        -0.000000      0.000000      0.000000
      0.00000      1.96000      1.65500         0.000000     -0.000000     -0.000000
      1.96000      0.00000      1.65500         0.000000     -0.000000     -0.000000
 -----------------------------------------------------------------------------------
    total drift:                                0.000000      0.000000      0.000000


--------------------------------------------------------------------------------------------------------



  FREE ENERGIE OF THE ION-ELECTRON SYSTEM (eV)
  ---------------------------------------------------
  free  energy   TOTEN  =       -28.45144441 eV

  energy  without entropy=      -28.45141482  energy(sigma->0) =      -28.45143702



--------------------------------------------------------------------------------------------------------


    POTLOK:  cpu time    0.0170: real time    0.0171


--------------------------------------------------------------------------------------------------------


 writing wavefunctions
     LOOP+:  cpu time  230.7721: real time  233.0691
    4ORBIT:  cpu time    0.0000: real time    0.0000

 optimized coefficients for linear combined projectors, energy window      -5.00     15.00
 species Nd NT=   1 L=   0     0.116    -0.389
 species Nd NT=   1 L=   1     0.675    -0.681
 species Nd NT=   1 L=   2     0.755     0.957
 species Ni NT=   2 L=   1     0.091    -0.852
 species Ni NT=   2 L=   2     0.953     0.975
 species Ni NT=   2 L=   0     0.493     0.945
 species O  NT=   3 L=   0     0.860    -0.994
 species O  NT=   3 L=   1     0.852    -0.946



 total charge

# of ion       s       p       d       tot
------------------------------------------
    1        2.071   5.881   0.773   8.725
    2        0.253   6.195   8.070  14.518
    3        1.555   3.443   0.000   4.999
    4        1.555   3.443   0.000   4.999
--------------------------------------------------
tot          5.435  18.962   8.843  33.240


 total amount of memory used by VASP MPI-rank0    91398. kBytes
=======================================================================

   base      :      30000. kBytes
   nonl-proj :      49085. kBytes
   fftplans  :        693. kBytes
   grid      :       2126. kBytes
   one-center:         62. kBytes
   wavefun   :       9432. kBytes

  
  
 General timing and accounting informations for this job:
 ========================================================
  
                  Total CPU time used (sec):      233.079
                            User time (sec):      224.719
                          System time (sec):        8.360
                         Elapsed time (sec):      235.838
  
                   Maximum memory used (kb):      562092.
                   Average memory used (kb):          N/A
  
                          Minor page faults:       171813
                          Major page faults:            0
                 Voluntary context switches:        11707
