
             +---------------------------------------------------+
             |                                                   |
             |                   WANNIER90                       |
             |                                                   |
             +---------------------------------------------------+
             |                                                   |
             |        Welcome to the Maximally-Localized         |
             |        Generalized Wannier Functions code         |
             |            http://www.wannier.org                 |
             |                                                   |
             |                                                   |
             |  Wannier90 Developer Group:                       |
             |    Giovanni Pizzi    (EPFL)                       |
             |    Valerio Vitale    (Cambridge)                  |
             |    David Vanderbilt  (Rutgers University)         |
             |    Nicola Marzari    (EPFL)                       |
             |    Ivo Souza         (Universidad del Pais Vasco) |
             |    Arash A. Mostofi  (Imperial College London)    |
             |    Jonathan R. Yates (University of Oxford)       |
             |                                                   |
             |  For the full list of Wannier90 3.x authors,      |
             |  please check the code documentation and the      |
             |  README on the GitHub page of the code            |
             |                                                   |
             |                                                   |
             |  Please cite                                      |
             |                                                   |
             |  [ref] "Wannier90 as a community code:            |
             |        new features and applications",            |
             |        G. Pizzi et al., J. Phys. Cond. Matt. 32,  |
             |        165902 (2020).                             |
             |        http://doi.org/10.1088/1361-648X/ab51ff    |
             |                                                   |
             |  in any publications arising from the use of      |
             |  this code. For the method please cite            |
             |                                                   |
             |  [ref] "Maximally Localized Generalised Wannier   |
             |         Functions for Composite Energy Bands"     |
             |         N. Marzari and D. Vanderbilt              |
             |         Phys. Rev. B 56 12847 (1997)              |
             |                                                   |
             |  [ref] "Maximally Localized Wannier Functions     |
             |         for Entangled Energy Bands"               |
             |         I. Souza, N. Marzari and D. Vanderbilt    |
             |         Phys. Rev. B 65 035109 (2001)             |
             |                                                   |
             |                                                   |
             | Copyright (c) 1996-2020                           |
             |        The Wannier90 Developer Group and          |
             |        individual contributors                    |
             |                                                   |
             |      Release: 3.1.0        5th March    2020      |
             |                                                   |
             | This program is free software; you can            |
             | redistribute it and/or modify it under the terms  |
             | of the GNU General Public License as published by |
             | the Free Software Foundation; either version 2 of |
             | the License, or (at your option) any later version|
             |                                                   |
             | This program is distributed in the hope that it   |
             | will be useful, but WITHOUT ANY WARRANTY; without |
             | even the implied warranty of MERCHANTABILITY or   |
             | FITNESS FOR A PARTICULAR PURPOSE. See the GNU     |
             | General Public License for more details.          |
             |                                                   |
             | You should have received a copy of the GNU General|
             | Public License along with this program; if not,   |
             | write to the Free Software Foundation, Inc.,      |
             | 675 Mass Ave, Cambridge, MA 02139, USA.           |
             |                                                   |
             +---------------------------------------------------+
             |    Execution started on 14Feb2022 at 17:52:19     |
             +---------------------------------------------------+
 
 ******************************************************************************
 * -> Using CODATA 2006 constant values                                       *
 *    (http://physics.nist.gov/cuu/Constants/index.html)                      *
 * -> Using Bohr value from CODATA                                            *
 ******************************************************************************
 

 Wannier90 is running in LIBRARY MODE

 Setting up k-point neighbours...


 Ignoring <num_bands> in input file
 Ignoring <mp_grid> in input file
 Ignoring <unit_cell_cart> in input file
 Ignoring <kpoints> in input file
 Ignoring <atoms_cart> in input file

                                    ------
                                    SYSTEM
                                    ------

                              Lattice Vectors (Ang)
                    a_1     3.919998   0.000000   0.000000
                    a_2     0.000000   3.919998   0.000000
                    a_3     0.000000   0.000000   3.309998

                   Unit Cell Volume:      50.86270  (Ang^3)

                        Reciprocal-Space Vectors (Ang^-1)
                    b_1     1.602854   0.000000   0.000000
                    b_2     0.000000   1.602854   0.000000
                    b_3     0.000000   0.000000   1.898244
  
 *----------------------------------------------------------------------------*
 |   Site       Fractional Coordinate          Cartesian Coordinate (Ang)     |
 +----------------------------------------------------------------------------+
 | Nd   1   0.00000   0.00000   0.00000   |    0.00000   0.00000   0.00000    |
 | Ni   1   0.50000   0.50000   0.50000   |    1.96000   1.96000   1.65500    |
 | O    1   0.00000   0.50000   0.50000   |    0.00000   1.96000   1.65500    |
 | O    2   0.50000   0.00000   0.50000   |    1.96000   0.00000   1.65500    |
 *----------------------------------------------------------------------------*
                                ------------
                                K-POINT GRID
                                ------------
  
             Grid size =  9 x  9 x  9      Total points =  729
  
  
 *---------------------------------- MAIN ------------------------------------*
 |  Number of Wannier Functions               :                16             |
 |  Number of Objective Wannier Functions     :                16             |
 |  Number of input Bloch states              :                60             |
 |  Output verbosity (1=low, 5=high)          :                 1             |
 |  Timing Level (1=low, 5=high)              :                 1             |
 |  Optimisation (0=memory, 3=speed)          :                 3             |
 |  Length Unit                               :               Ang             |
 |  Post-processing setup (write *.nnkp)      :                 F             |
 |  Using Gamma-only branch of algorithms     :                 F             |
 |  Wavefunction (UNK) file-type              :       unformatted             |
 |  Wavefunction spin channel                 :                up             |
 *----------------------------------------------------------------------------*
 *------------------------------- WANNIERISE ---------------------------------*
 |  Total number of iterations                :            200000             |
 |  Number of CG steps before reset           :                 5             |
 |  Trial step length for line search         :             2.000             |
 |  Convergence tolerence                     :         0.100E-09             |
 |  Convergence window                        :                50             |
 |  Iterations between writing output         :               100             |
 |  Iterations between backing up to disk     :               100             |
 |  Write r^2_nm to file                      :                 F             |
 |  Write xyz WF centres to file              :                 F             |
 |  Write on-site energies <0n|H|0n> to file  :                 F             |
 |  Use guiding centre to control phases      :                 T             |
 |  Use phases for initial projections        :                 F             |
 |  Iterations before starting guiding centres:                 0             |
 |  Iterations between using guiding centres  :                 1             |
 *----------------------------------------------------------------------------*
 *------------------------------- DISENTANGLE --------------------------------*
 |  Using band disentanglement                :                 T             |
 |  Total number of iterations                :            100000             |
 |  Mixing ratio                              :             0.500             |
 |  Convergence tolerence                     :         1.000E-14             |
 |  Convergence window                        :                 3             |
 *----------------------------------------------------------------------------*
 *-------------------------------- PLOTTING ----------------------------------*
 |  Plotting Wannier functions                :                 T             |
 |   Size of supercell for plotting           :     2x    2x    2             |
 |   Plotting mode (molecule or crystal)      :           crystal             |
 |   Plotting format                          :          xcrysden             |
 *----------------------------------------------------------------------------*
 |  Plotting interpolated bandstructure       :                 T             |
 |   Number of K-path sections                :                 7             |
 |   Divisions along first K-path section     :               100             |
 |   Output format                            :          gnuplot              |
 |   Output mode                              :               s-k             |
 *----------------------------------------------------------------------------*
 |   K-space path sections:                                                   |
 |    From: G       0.000  0.000  0.000     To: X       0.500  0.000  0.000   |
 |    From: X       0.500  0.000  0.000     To: M       0.500 -0.500  0.000   |
 |    From: M       0.500 -0.500  0.000     To: G       0.000  0.000  0.000   |
 |    From: G       0.000  0.000  0.000     To: Z       0.000  0.000  0.500   |
 |    From: Z       0.000  0.000  0.500     To: R       0.500  0.000  0.500   |
 |    From: R       0.500  0.000  0.500     To: A       0.500 -0.500  0.500   |
 |    From: A       0.500 -0.500  0.500     To: Z       0.000  0.000  0.500   |
 *----------------------------------------------------------------------------*
 |  Plotting Hamiltonian in WF basis          :                 T             |
 *----------------------------------------------------------------------------*
 Time to read parameters        0.046 (sec)

 *---------------------------------- K-MESH ----------------------------------*
 +----------------------------------------------------------------------------+
 |                    Distance to Nearest-Neighbour Shells                    |
 |                    ------------------------------------                    |
 |          Shell             Distance (Ang^-1)          Multiplicity         |
 |          -----             -----------------          ------------         |
 |             1                   0.178095                      4            |
 |             2                   0.210916                      2            |
 |             3                   0.251864                      4            |
 |             4                   0.276050                      8            |
 |             5                   0.328514                      8            |
 |             6                   0.356190                      4            |
 |             7                   0.398232                      8            |
 |             8                   0.413953                      8            |
 |             9                   0.421832                      2            |
 |            10                   0.450638                     16            |
 |            11                   0.457887                      8            |
 |            12                   0.491302                      8            |
 |            13                   0.503728                      4            |
 |            14                   0.534285                      4            |
 |            15                   0.546103                      8            |
 |            16                   0.552099                      8            |
 |            17                   0.563186                      8            |
 |            18                   0.574409                      8            |
 |            19                   0.580113                     16            |
 |            20                   0.601385                     16            |
 |            21                   0.632748                      2            |
 |            22                   0.642130                      8            |
 |            23                   0.657027                      8            |
 |            24                   0.657334                      8            |
 |            25                   0.675882                     16            |
 |            26                   0.680737                      8            |
 |            27                   0.681033                      8            |
 |            28                   0.703648                     16            |
 |            29                   0.712380                      4            |
 |            30                   0.726114                      8            |
 |            31                   0.734304                      8            |
 |            32                   0.742947                      8            |
 |            33                   0.747636                     16            |
 |            34                   0.755593                      4            |
 |            35                   0.763995                     16            |
 |            36                   0.768293                     16            |
 +----------------------------------------------------------------------------+
 | The b-vectors are chosen automatically                                     |
 | The following shells are used:   1,  2                                     |
 +----------------------------------------------------------------------------+
 |                        Shell   # Nearest-Neighbours                        |
 |                        -----   --------------------                        |
 |                          1               4                                 |
 |                          2               2                                 |
 +----------------------------------------------------------------------------+
 | Completeness relation is fully satisfied [Eq. (B1), PRB 56, 12847 (1997)]  |
 +----------------------------------------------------------------------------+
 |                  b_k Vectors (Ang^-1) and Weights (Ang^2)                  |
 |                  ----------------------------------------                  |
 |            No.         b_k(x)      b_k(y)      b_k(z)        w_b           |
 |            ---        --------------------------------     --------        |
 |             1         0.178095    0.000000    0.000000    15.764019        |
 |             2        -0.178095   -0.000000   -0.000000    15.764019        |
 |             3        -0.000000    0.178095    0.000000    15.764019        |
 |             4         0.000000   -0.178095   -0.000000    15.764019        |
 |             5         0.000000    0.000000    0.210916    11.239597        |
 |             6        -0.000000   -0.000000   -0.210916    11.239597        |
 +----------------------------------------------------------------------------+
 |                           b_k Directions (Ang^-1)                          |
 |                           -----------------------                          |
 |            No.           x           y           z                         |
 |            ---        --------------------------------                     |
 |             1         0.178095    0.000000    0.000000                     |
 |             2        -0.000000    0.178095    0.000000                     |
 |             3         0.000000    0.000000    0.210916                     |
 +----------------------------------------------------------------------------+
  
 Time to write kmesh            0.253 (sec)

 Finished setting up k-point neighbours.

 Exiting wannier_setup in wannier90 17:52:19 

 Resuming Wannier90 at 17:54:01 


 Ignoring <num_bands> in input file
 Ignoring <mp_grid> in input file
 Ignoring <unit_cell_cart> in input file
 Ignoring <kpoints> in input file
 Ignoring <atoms_cart> in input file

                                    ------
                                    SYSTEM
                                    ------

                              Lattice Vectors (Ang)
                    a_1     3.919998   0.000000   0.000000
                    a_2     0.000000   3.919998   0.000000
                    a_3     0.000000   0.000000   3.309998

                   Unit Cell Volume:      50.86270  (Ang^3)

                        Reciprocal-Space Vectors (Ang^-1)
                    b_1     1.602854   0.000000   0.000000
                    b_2     0.000000   1.602854   0.000000
                    b_3     0.000000   0.000000   1.898244
  
 *----------------------------------------------------------------------------*
 |   Site       Fractional Coordinate          Cartesian Coordinate (Ang)     |
 +----------------------------------------------------------------------------+
 | Nd   1   0.00000   0.00000   0.00000   |    0.00000   0.00000   0.00000    |
 | Ni   1   0.50000   0.50000   0.50000   |    1.96000   1.96000   1.65500    |
 | O    1   0.00000   0.50000   0.50000   |    0.00000   1.96000   1.65500    |
 | O    2   0.50000   0.00000   0.50000   |    1.96000   0.00000   1.65500    |
 *----------------------------------------------------------------------------*
                                ------------
                                K-POINT GRID
                                ------------
  
             Grid size =  9 x  9 x  9      Total points =  729
  
  
 *---------------------------------- MAIN ------------------------------------*
 |  Number of Wannier Functions               :                16             |
 |  Number of Objective Wannier Functions     :                16             |
 |  Number of input Bloch states              :                60             |
 |  Output verbosity (1=low, 5=high)          :                 1             |
 |  Timing Level (1=low, 5=high)              :                 1             |
 |  Optimisation (0=memory, 3=speed)          :                 3             |
 |  Length Unit                               :               Ang             |
 |  Post-processing setup (write *.nnkp)      :                 F             |
 |  Using Gamma-only branch of algorithms     :                 F             |
 |  Wavefunction (UNK) file-type              :       unformatted             |
 |  Wavefunction spin channel                 :                up             |
 *----------------------------------------------------------------------------*
 *------------------------------- WANNIERISE ---------------------------------*
 |  Total number of iterations                :            200000             |
 |  Number of CG steps before reset           :                 5             |
 |  Trial step length for line search         :             2.000             |
 |  Convergence tolerence                     :         0.100E-09             |
 |  Convergence window                        :                50             |
 |  Iterations between writing output         :               100             |
 |  Iterations between backing up to disk     :               100             |
 |  Write r^2_nm to file                      :                 F             |
 |  Write xyz WF centres to file              :                 F             |
 |  Write on-site energies <0n|H|0n> to file  :                 F             |
 |  Use guiding centre to control phases      :                 T             |
 |  Use phases for initial projections        :                 F             |
 |  Iterations before starting guiding centres:                 0             |
 |  Iterations between using guiding centres  :                 1             |
 *----------------------------------------------------------------------------*
 *------------------------------- DISENTANGLE --------------------------------*
 |  Using band disentanglement                :                 T             |
 |  Total number of iterations                :            100000             |
 |  Mixing ratio                              :             0.500             |
 |  Convergence tolerence                     :         1.000E-14             |
 |  Convergence window                        :                 3             |
 *----------------------------------------------------------------------------*
 *-------------------------------- PLOTTING ----------------------------------*
 |  Plotting Wannier functions                :                 T             |
 |   Size of supercell for plotting           :     2x    2x    2             |
 |   Plotting mode (molecule or crystal)      :           crystal             |
 |   Plotting format                          :          xcrysden             |
 *----------------------------------------------------------------------------*
 |  Plotting interpolated bandstructure       :                 T             |
 |   Number of K-path sections                :                 7             |
 |   Divisions along first K-path section     :               100             |
 |   Output format                            :          gnuplot              |
 |   Output mode                              :               s-k             |
 *----------------------------------------------------------------------------*
 |   K-space path sections:                                                   |
 |    From: G       0.000  0.000  0.000     To: X       0.500  0.000  0.000   |
 |    From: X       0.500  0.000  0.000     To: M       0.500 -0.500  0.000   |
 |    From: M       0.500 -0.500  0.000     To: G       0.000  0.000  0.000   |
 |    From: G       0.000  0.000  0.000     To: Z       0.000  0.000  0.500   |
 |    From: Z       0.000  0.000  0.500     To: R       0.500  0.000  0.500   |
 |    From: R       0.500  0.000  0.500     To: A       0.500 -0.500  0.500   |
 |    From: A       0.500 -0.500  0.500     To: Z       0.000  0.000  0.500   |
 *----------------------------------------------------------------------------*
 |  Plotting Hamiltonian in WF basis          :                 T             |
 *----------------------------------------------------------------------------*
 Time to read parameters        0.045 (sec)

 *---------------------------------- K-MESH ----------------------------------*
 +----------------------------------------------------------------------------+
 |                    Distance to Nearest-Neighbour Shells                    |
 |                    ------------------------------------                    |
 |          Shell             Distance (Ang^-1)          Multiplicity         |
 |          -----             -----------------          ------------         |
 |             1                   0.178095                      4            |
 |             2                   0.210916                      2            |
 |             3                   0.251864                      4            |
 |             4                   0.276050                      8            |
 |             5                   0.328514                      8            |
 |             6                   0.356190                      4            |
 |             7                   0.398232                      8            |
 |             8                   0.413953                      8            |
 |             9                   0.421832                      2            |
 |            10                   0.450638                     16            |
 |            11                   0.457887                      8            |
 |            12                   0.491302                      8            |
 |            13                   0.503728                      4            |
 |            14                   0.534285                      4            |
 |            15                   0.546103                      8            |
 |            16                   0.552099                      8            |
 |            17                   0.563186                      8            |
 |            18                   0.574409                      8            |
 |            19                   0.580113                     16            |
 |            20                   0.601385                     16            |
 |            21                   0.632748                      2            |
 |            22                   0.642130                      8            |
 |            23                   0.657027                      8            |
 |            24                   0.657334                      8            |
 |            25                   0.675882                     16            |
 |            26                   0.680737                      8            |
 |            27                   0.681033                      8            |
 |            28                   0.703648                     16            |
 |            29                   0.712380                      4            |
 |            30                   0.726114                      8            |
 |            31                   0.734304                      8            |
 |            32                   0.742947                      8            |
 |            33                   0.747636                     16            |
 |            34                   0.755593                      4            |
 |            35                   0.763995                     16            |
 |            36                   0.768293                     16            |
 +----------------------------------------------------------------------------+
 | The b-vectors are chosen automatically                                     |
 | The following shells are used:   1,  2                                     |
 +----------------------------------------------------------------------------+
 |                        Shell   # Nearest-Neighbours                        |
 |                        -----   --------------------                        |
 |                          1               4                                 |
 |                          2               2                                 |
 +----------------------------------------------------------------------------+
 | Completeness relation is fully satisfied [Eq. (B1), PRB 56, 12847 (1997)]  |
 +----------------------------------------------------------------------------+
 |                  b_k Vectors (Ang^-1) and Weights (Ang^2)                  |
 |                  ----------------------------------------                  |
 |            No.         b_k(x)      b_k(y)      b_k(z)        w_b           |
 |            ---        --------------------------------     --------        |
 |             1         0.178095    0.000000    0.000000    15.764019        |
 |             2        -0.178095   -0.000000   -0.000000    15.764019        |
 |             3        -0.000000    0.178095    0.000000    15.764019        |
 |             4         0.000000   -0.178095   -0.000000    15.764019        |
 |             5         0.000000    0.000000    0.210916    11.239597        |
 |             6        -0.000000   -0.000000   -0.210916    11.239597        |
 +----------------------------------------------------------------------------+
 |                           b_k Directions (Ang^-1)                          |
 |                           -----------------------                          |
 |            No.           x           y           z                         |
 |            ---        --------------------------------                     |
 |             1         0.178095    0.000000    0.000000                     |
 |             2        -0.000000    0.178095    0.000000                     |
 |             3         0.000000    0.000000    0.210916                     |
 +----------------------------------------------------------------------------+
  
 Time to get kmesh              0.205 (sec)

 *------------------------------- DISENTANGLE --------------------------------*
 +----------------------------------------------------------------------------+
 |                              Energy  Windows                               |
 |                              ---------------                               |
 |                   Outer:   -5.01000  to   13.61000  (eV)                   |
 |                   Inner:    5.89000  to    7.76000  (eV)                   |
 +----------------------------------------------------------------------------+
   Number of target bands to extract:   16

                   Unitarised projection of Wannier functions                  
                   ------------------------------------------                  
   A_mn = <psi_m|g_n> --> S = A.A^+ --> U = S^-1/2.A
   In dis_project... done
   Using an inner window (linner = T)
   In dis_proj_froz... done

                   Extraction of optimally-connected subspace                  
                   ------------------------------------------                  
 +---------------------------------------------------------------------+<-- DIS
 |  Iter     Omega_I(i-1)      Omega_I(i)      Delta (frac.)    Time   |<-- DIS
 +---------------------------------------------------------------------+<-- DIS
       1      22.76603711      21.81860574       4.342E-02      0.00    <-- DIS
       2      21.95993236      21.54092933       1.945E-02      0.09    <-- DIS
       3      21.69805464      21.36203246       1.573E-02      0.17    <-- DIS
       4      21.48296215      21.22867748       1.198E-02      0.24    <-- DIS
       5      21.31712976      21.12517457       9.087E-03      0.32    <-- DIS
       6      21.18957813      21.04266041       6.982E-03      0.40    <-- DIS
       7      21.09010427      20.97548102       5.465E-03      0.48    <-- DIS
       8      21.01109579      20.91984721       4.362E-03      0.56    <-- DIS
       9      20.94716683      20.87312780       3.547E-03      0.64    <-- DIS
      10      20.89454640      20.83344063       2.933E-03      0.72    <-- DIS
      11      20.85057825      20.79940414       2.460E-03      0.80    <-- DIS
      12      20.81336548      20.76998082       2.089E-03      0.88    <-- DIS
      13      20.78152937      20.74437565       1.791E-03      0.96    <-- DIS
      14      20.75404824      20.72196826       1.548E-03      1.04    <-- DIS
      15      20.73014994      20.70226659       1.347E-03      1.12    <-- DIS
      16      20.70923951      20.68487457       1.178E-03      1.20    <-- DIS
      17      20.69085016      20.66946914       1.034E-03      1.28    <-- DIS
      18      20.67460938      20.65578362       9.114E-04      1.36    <-- DIS
      19      20.66021534      20.64359548       8.051E-04      1.44    <-- DIS
      20      20.64742006      20.63271727       7.126E-04      1.51    <-- DIS
      21      20.63601727      20.62298973       6.317E-04      1.59    <-- DIS
      22      20.62583357      20.61427653       5.606E-04      1.67    <-- DIS
      23      20.61672174      20.60646021       4.980E-04      1.75    <-- DIS
      24      20.60855583      20.59943899       4.426E-04      1.83    <-- DIS
      25      20.60122722      20.59312420       3.935E-04      1.91    <-- DIS
      26      20.59464175      20.58743833       3.499E-04      1.99    <-- DIS
      27      20.58871728      20.58231328       3.111E-04      2.07    <-- DIS
      28      20.58338190      20.57768912       2.766E-04      2.15    <-- DIS
      29      20.57857237      20.57351288       2.459E-04      2.23    <-- DIS
      30      20.57423291      20.56973770       2.185E-04      2.31    <-- DIS
      31      20.57031419      20.56632198       1.941E-04      2.39    <-- DIS
      32      20.56677246      20.56322879       1.723E-04      2.47    <-- DIS
      33      20.56356886      20.56042521       1.529E-04      2.55    <-- DIS
      34      20.56066879      20.55788195       1.356E-04      2.62    <-- DIS
      35      20.55804145      20.55557283       1.201E-04      2.70    <-- DIS
      36      20.55565931      20.55347450       1.063E-04      2.78    <-- DIS
      37      20.55349779      20.55156605       9.400E-05      2.86    <-- DIS
      38      20.55153494      20.54982879       8.302E-05      2.94    <-- DIS
      39      20.54975106      20.54824598       7.325E-05      3.02    <-- DIS
      40      20.54812855      20.54680260       6.453E-05      3.10    <-- DIS
      41      20.54665162      20.54548520       5.677E-05      3.18    <-- DIS
      42      20.54530609      20.54428170       4.986E-05      3.26    <-- DIS
      43      20.54407926      20.54318125       4.371E-05      3.34    <-- DIS
      44      20.54295972      20.54217410       3.824E-05      3.42    <-- DIS
      45      20.54193722      20.54125149       3.338E-05      3.50    <-- DIS
      46      20.54100253      20.54040554       2.906E-05      3.58    <-- DIS
      47      20.54014737      20.53962915       2.523E-05      3.66    <-- DIS
      48      20.53936428      20.53891593       2.183E-05      3.73    <-- DIS
      49      20.53864654      20.53826012       1.881E-05      3.81    <-- DIS
      50      20.53798812      20.53765654       1.615E-05      3.89    <-- DIS
      51      20.53738356      20.53710049       1.378E-05      3.97    <-- DIS
      52      20.53682794      20.53658775       1.170E-05      4.05    <-- DIS
      53      20.53631685      20.53611449       9.854E-06      4.13    <-- DIS
      54      20.53584627      20.53567727       8.230E-06      4.21    <-- DIS
      55      20.53541260      20.53527297       6.800E-06      4.29    <-- DIS
      56      20.53501257      20.53489874       5.543E-06      4.37    <-- DIS
      57      20.53464324      20.53455205       4.441E-06      4.45    <-- DIS
      58      20.53430193      20.53423056       3.476E-06      4.53    <-- DIS
      59      20.53398623      20.53393217       2.633E-06      4.61    <-- DIS
      60      20.53369396      20.53365498       1.898E-06      4.68    <-- DIS
      61      20.53342312      20.53339725       1.260E-06      4.76    <-- DIS
      62      20.53317192      20.53315741       7.071E-07      4.84    <-- DIS
      63      20.53293874      20.53293401       2.303E-07      4.92    <-- DIS
      64      20.53272208      20.53272576      -1.793E-07      5.00    <-- DIS
      65      20.53252060      20.53253147      -5.293E-07      5.08    <-- DIS
      66      20.53233308      20.53235005      -8.265E-07      5.16    <-- DIS
      67      20.53215841      20.53218052      -1.077E-06      5.24    <-- DIS
      68      20.53199556      20.53202197      -1.287E-06      5.32    <-- DIS
      69      20.53184361      20.53187358      -1.460E-06      5.40    <-- DIS
      70      20.53170172      20.53173459      -1.601E-06      5.48    <-- DIS
      71      20.53156912      20.53160431      -1.714E-06      5.56    <-- DIS
      72      20.53144510      20.53148210      -1.802E-06      5.63    <-- DIS
      73      20.53132902      20.53136739      -1.869E-06      5.71    <-- DIS
      74      20.53122030      20.53125965      -1.917E-06      5.79    <-- DIS
      75      20.53111838      20.53115838      -1.948E-06      5.87    <-- DIS
      76      20.53102279      20.53106313      -1.965E-06      5.95    <-- DIS
      77      20.53093306      20.53097349      -1.970E-06      6.03    <-- DIS
      78      20.53084877      20.53088908      -1.963E-06      6.11    <-- DIS
      79      20.53076955      20.53080954      -1.948E-06      6.19    <-- DIS
      80      20.53069504      20.53073455      -1.924E-06      6.27    <-- DIS
      81      20.53062492      20.53066381      -1.894E-06      6.35    <-- DIS
      82      20.53055889      20.53059705      -1.859E-06      6.43    <-- DIS
      83      20.53049668      20.53053400      -1.818E-06      6.51    <-- DIS
      84      20.53043802      20.53047443      -1.773E-06      6.59    <-- DIS
      85      20.53038269      20.53041811      -1.726E-06      6.66    <-- DIS
      86      20.53033046      20.53036486      -1.675E-06      6.74    <-- DIS
      87      20.53028115      20.53031446      -1.623E-06      6.82    <-- DIS
      88      20.53023455      20.53026676      -1.569E-06      6.90    <-- DIS
      89      20.53019051      20.53022158      -1.513E-06      6.98    <-- DIS
      90      20.53014885      20.53017877      -1.458E-06      7.06    <-- DIS
      91      20.53010943      20.53013820      -1.401E-06      7.14    <-- DIS
      92      20.53007212      20.53009972      -1.345E-06      7.22    <-- DIS
      93      20.53003678      20.53006322      -1.288E-06      7.30    <-- DIS
      94      20.53000329      20.53002859      -1.232E-06      7.38    <-- DIS
      95      20.52997155      20.52999570      -1.176E-06      7.46    <-- DIS
      96      20.52994145      20.52996447      -1.121E-06      7.54    <-- DIS
      97      20.52991290      20.52993480      -1.067E-06      7.62    <-- DIS
      98      20.52988580      20.52990660      -1.013E-06      7.70    <-- DIS
      99      20.52986006      20.52987979      -9.610E-07      7.78    <-- DIS
     100      20.52983562      20.52985429      -9.096E-07      7.85    <-- DIS
     101      20.52981240      20.52983004      -8.593E-07      7.93    <-- DIS
     102      20.52979032      20.52980695      -8.101E-07      8.01    <-- DIS
     103      20.52976933      20.52978498      -7.622E-07      8.09    <-- DIS
     104      20.52974937      20.52976405      -7.155E-07      8.17    <-- DIS
     105      20.52973037      20.52974412      -6.700E-07      8.25    <-- DIS
     106      20.52971228      20.52972513      -6.258E-07      8.33    <-- DIS
     107      20.52969506      20.52970703      -5.829E-07      8.41    <-- DIS
     108      20.52967866      20.52968977      -5.412E-07      8.49    <-- DIS
     109      20.52966304      20.52967332      -5.008E-07      8.57    <-- DIS
     110      20.52964814      20.52965762      -4.617E-07      8.65    <-- DIS
     111      20.52963394      20.52964264      -4.239E-07      8.73    <-- DIS
     112      20.52962040      20.52962835      -3.872E-07      8.80    <-- DIS
     113      20.52960748      20.52961470      -3.518E-07      8.88    <-- DIS
     114      20.52959515      20.52960167      -3.177E-07      8.96    <-- DIS
     115      20.52958338      20.52958923      -2.847E-07      9.04    <-- DIS
     116      20.52957214      20.52957734      -2.528E-07      9.13    <-- DIS
     117      20.52956141      20.52956597      -2.221E-07      9.20    <-- DIS
     118      20.52955116      20.52955511      -1.925E-07      9.28    <-- DIS
     119      20.52954136      20.52954473      -1.641E-07      9.36    <-- DIS
     120      20.52953199      20.52953480      -1.366E-07      9.44    <-- DIS
     121      20.52952304      20.52952530      -1.103E-07      9.52    <-- DIS
     122      20.52951447      20.52951621      -8.491E-08      9.60    <-- DIS
     123      20.52950627      20.52950752      -6.054E-08      9.68    <-- DIS
     124      20.52949843      20.52949919      -3.713E-08      9.76    <-- DIS
     125      20.52949092      20.52949122      -1.466E-08      9.84    <-- DIS
     126      20.52948373      20.52948359       6.901E-09      9.92    <-- DIS
     127      20.52947685      20.52947628       2.758E-08     10.00    <-- DIS
     128      20.52947025      20.52946928       4.739E-08     10.08    <-- DIS
     129      20.52946393      20.52946257       6.637E-08     10.16    <-- DIS
     130      20.52945787      20.52945613       8.455E-08     10.24    <-- DIS
     131      20.52945206      20.52944997       1.019E-07     10.32    <-- DIS
     132      20.52944649      20.52944406       1.186E-07     10.40    <-- DIS
     133      20.52944115      20.52943839       1.345E-07     10.47    <-- DIS
     134      20.52943602      20.52943295       1.496E-07     10.55    <-- DIS
     135      20.52943110      20.52942773       1.641E-07     10.63    <-- DIS
     136      20.52942637      20.52942272       1.779E-07     10.71    <-- DIS
     137      20.52942184      20.52941791       1.911E-07     10.79    <-- DIS
     138      20.52941748      20.52941330       2.036E-07     10.87    <-- DIS
     139      20.52941329      20.52940887       2.156E-07     10.95    <-- DIS
     140      20.52940927      20.52940461       2.269E-07     11.03    <-- DIS
     141      20.52940540      20.52940052       2.377E-07     11.11    <-- DIS
     142      20.52940169      20.52939660       2.480E-07     11.19    <-- DIS
     143      20.52939811      20.52939282       2.577E-07     11.27    <-- DIS
     144      20.52939467      20.52938919       2.669E-07     11.35    <-- DIS
     145      20.52939136      20.52938571       2.756E-07     11.43    <-- DIS
     146      20.52938818      20.52938235       2.838E-07     11.51    <-- DIS
     147      20.52938511      20.52937913       2.916E-07     11.59    <-- DIS
     148      20.52938216      20.52937603       2.989E-07     11.67    <-- DIS
     149      20.52937932      20.52937304       3.058E-07     11.75    <-- DIS
     150      20.52937658      20.52937017       3.123E-07     11.83    <-- DIS
     151      20.52937395      20.52936741       3.184E-07     11.91    <-- DIS
     152      20.52937140      20.52936475       3.241E-07     11.99    <-- DIS
     153      20.52936895      20.52936219       3.295E-07     12.07    <-- DIS
     154      20.52936659      20.52935973       3.345E-07     12.14    <-- DIS
     155      20.52936431      20.52935735       3.391E-07     12.22    <-- DIS
     156      20.52936211      20.52935506       3.434E-07     12.30    <-- DIS
     157      20.52935999      20.52935286       3.474E-07     12.38    <-- DIS
     158      20.52935795      20.52935074       3.511E-07     12.46    <-- DIS
     159      20.52935597      20.52934870       3.545E-07     12.54    <-- DIS
     160      20.52935407      20.52934672       3.576E-07     12.62    <-- DIS
     161      20.52935222      20.52934482       3.604E-07     12.70    <-- DIS
     162      20.52935044      20.52934299       3.630E-07     12.78    <-- DIS
     163      20.52934873      20.52934123       3.653E-07     12.86    <-- DIS
     164      20.52934707      20.52933952       3.674E-07     12.94    <-- DIS
     165      20.52934546      20.52933788       3.692E-07     13.02    <-- DIS
     166      20.52934391      20.52933630       3.709E-07     13.10    <-- DIS
     167      20.52934241      20.52933477       3.723E-07     13.19    <-- DIS
     168      20.52934096      20.52933329       3.735E-07     13.27    <-- DIS
     169      20.52933955      20.52933187       3.745E-07     13.36    <-- DIS
     170      20.52933820      20.52933049       3.753E-07     13.45    <-- DIS
     171      20.52933688      20.52932917       3.759E-07     13.53    <-- DIS
     172      20.52933561      20.52932788       3.763E-07     13.62    <-- DIS
     173      20.52933438      20.52932665       3.766E-07     13.70    <-- DIS
     174      20.52933319      20.52932545       3.767E-07     13.78    <-- DIS
     175      20.52933203      20.52932430       3.767E-07     13.86    <-- DIS
     176      20.52933091      20.52932319       3.765E-07     13.94    <-- DIS
     177      20.52932983      20.52932211       3.762E-07     14.02    <-- DIS
     178      20.52932878      20.52932107       3.757E-07     14.10    <-- DIS
     179      20.52932776      20.52932006       3.751E-07     14.19    <-- DIS
     180      20.52932678      20.52931909       3.744E-07     14.27    <-- DIS
     181      20.52932582      20.52931815       3.736E-07     14.35    <-- DIS
     182      20.52932489      20.52931724       3.726E-07     14.43    <-- DIS
     183      20.52932399      20.52931637       3.716E-07     14.52    <-- DIS
     184      20.52932312      20.52931552       3.704E-07     14.60    <-- DIS
     185      20.52932228      20.52931470       3.692E-07     14.68    <-- DIS
     186      20.52932146      20.52931390       3.678E-07     14.77    <-- DIS
     187      20.52932066      20.52931314       3.664E-07     14.86    <-- DIS
     188      20.52931988      20.52931239       3.648E-07     14.94    <-- DIS
     189      20.52931913      20.52931168       3.632E-07     15.02    <-- DIS
     190      20.52931840      20.52931098       3.616E-07     15.10    <-- DIS
     191      20.52931770      20.52931031       3.598E-07     15.18    <-- DIS
     192      20.52931701      20.52930966       3.580E-07     15.25    <-- DIS
     193      20.52931634      20.52930903       3.561E-07     15.34    <-- DIS
     194      20.52931569      20.52930842       3.541E-07     15.42    <-- DIS
     195      20.52931506      20.52930783       3.521E-07     15.50    <-- DIS
     196      20.52931445      20.52930726       3.501E-07     15.58    <-- DIS
     197      20.52931385      20.52930671       3.479E-07     15.66    <-- DIS
     198      20.52931327      20.52930617       3.458E-07     15.74    <-- DIS
     199      20.52931271      20.52930565       3.436E-07     15.82    <-- DIS
     200      20.52931216      20.52930515       3.413E-07     15.90    <-- DIS
     201      20.52931162      20.52930467       3.390E-07     15.98    <-- DIS
     202      20.52931111      20.52930419       3.367E-07     16.06    <-- DIS
     203      20.52931060      20.52930374       3.343E-07     16.14    <-- DIS
     204      20.52931011      20.52930330       3.319E-07     16.22    <-- DIS
     205      20.52930963      20.52930287       3.295E-07     16.30    <-- DIS
     206      20.52930917      20.52930246       3.270E-07     16.38    <-- DIS
     207      20.52930872      20.52930205       3.245E-07     16.46    <-- DIS
     208      20.52930828      20.52930166       3.220E-07     16.54    <-- DIS
     209      20.52930785      20.52930129       3.194E-07     16.62    <-- DIS
     210      20.52930743      20.52930092       3.169E-07     16.70    <-- DIS
     211      20.52930702      20.52930057       3.143E-07     16.78    <-- DIS
     212      20.52930663      20.52930023       3.117E-07     16.86    <-- DIS
     213      20.52930624      20.52929989       3.091E-07     16.94    <-- DIS
     214      20.52930586      20.52929957       3.065E-07     17.02    <-- DIS
     215      20.52930550      20.52929926       3.039E-07     17.10    <-- DIS
     216      20.52930514      20.52929896       3.012E-07     17.18    <-- DIS
     217      20.52930479      20.52929866       2.986E-07     17.26    <-- DIS
     218      20.52930445      20.52929838       2.959E-07     17.34    <-- DIS
     219      20.52930412      20.52929810       2.932E-07     17.42    <-- DIS
     220      20.52930380      20.52929783       2.906E-07     17.49    <-- DIS
     221      20.52930349      20.52929757       2.879E-07     17.57    <-- DIS
     222      20.52930318      20.52929732       2.852E-07     17.65    <-- DIS
     223      20.52930288      20.52929708       2.826E-07     17.73    <-- DIS
     224      20.52930259      20.52929684       2.799E-07     17.81    <-- DIS
     225      20.52930230      20.52929661       2.772E-07     17.89    <-- DIS
     226      20.52930203      20.52929639       2.745E-07     17.97    <-- DIS
     227      20.52930176      20.52929617       2.719E-07     18.05    <-- DIS
     228      20.52930149      20.52929596       2.692E-07     18.13    <-- DIS
     229      20.52930123      20.52929576       2.665E-07     18.21    <-- DIS
     230      20.52930098      20.52929556       2.639E-07     18.29    <-- DIS
     231      20.52930074      20.52929537       2.612E-07     18.37    <-- DIS
     232      20.52930050      20.52929519       2.586E-07     18.45    <-- DIS
     233      20.52930026      20.52929501       2.560E-07     18.53    <-- DIS
     234      20.52930003      20.52929483       2.533E-07     18.60    <-- DIS
     235      20.52929981      20.52929466       2.507E-07     18.68    <-- DIS
     236      20.52929959      20.52929450       2.481E-07     18.77    <-- DIS
     237      20.52929938      20.52929434       2.455E-07     18.84    <-- DIS
     238      20.52929917      20.52929419       2.429E-07     18.93    <-- DIS
     239      20.52929897      20.52929404       2.404E-07     19.00    <-- DIS
     240      20.52929877      20.52929389       2.378E-07     19.08    <-- DIS
     241      20.52929858      20.52929375       2.352E-07     19.16    <-- DIS
     242      20.52929839      20.52929361       2.327E-07     19.24    <-- DIS
     243      20.52929820      20.52929348       2.302E-07     19.32    <-- DIS
     244      20.52929802      20.52929335       2.277E-07     19.40    <-- DIS
     245      20.52929785      20.52929322       2.252E-07     19.48    <-- DIS
     246      20.52929767      20.52929310       2.227E-07     19.56    <-- DIS
     247      20.52929750      20.52929298       2.203E-07     19.64    <-- DIS
     248      20.52929734      20.52929287       2.178E-07     19.73    <-- DIS
     249      20.52929718      20.52929276       2.154E-07     19.81    <-- DIS
     250      20.52929702      20.52929265       2.130E-07     19.89    <-- DIS
     251      20.52929687      20.52929254       2.106E-07     19.98    <-- DIS
     252      20.52929672      20.52929244       2.082E-07     20.06    <-- DIS
     253      20.52929657      20.52929234       2.058E-07     20.14    <-- DIS
     254      20.52929642      20.52929225       2.035E-07     20.23    <-- DIS
     255      20.52929628      20.52929215       2.012E-07     20.31    <-- DIS
     256      20.52929615      20.52929206       1.988E-07     20.39    <-- DIS
     257      20.52929601      20.52929198       1.966E-07     20.48    <-- DIS
     258      20.52929588      20.52929189       1.943E-07     20.56    <-- DIS
     259      20.52929575      20.52929181       1.920E-07     20.65    <-- DIS
     260      20.52929562      20.52929173       1.898E-07     20.73    <-- DIS
     261      20.52929550      20.52929165       1.876E-07     20.81    <-- DIS
     262      20.52929538      20.52929157       1.854E-07     20.89    <-- DIS
     263      20.52929526      20.52929150       1.832E-07     20.97    <-- DIS
     264      20.52929514      20.52929143       1.810E-07     21.05    <-- DIS
     265      20.52929503      20.52929136       1.789E-07     21.13    <-- DIS
     266      20.52929492      20.52929129       1.767E-07     21.22    <-- DIS
     267      20.52929481      20.52929123       1.746E-07     21.29    <-- DIS
     268      20.52929470      20.52929116       1.725E-07     21.37    <-- DIS
     269      20.52929460      20.52929110       1.705E-07     21.45    <-- DIS
     270      20.52929450      20.52929104       1.684E-07     21.53    <-- DIS
     271      20.52929440      20.52929098       1.664E-07     21.61    <-- DIS
     272      20.52929430      20.52929093       1.644E-07     21.69    <-- DIS
     273      20.52929420      20.52929087       1.624E-07     21.77    <-- DIS
     274      20.52929411      20.52929082       1.604E-07     21.85    <-- DIS
     275      20.52929402      20.52929077       1.584E-07     21.93    <-- DIS
     276      20.52929393      20.52929072       1.565E-07     22.01    <-- DIS
     277      20.52929384      20.52929067       1.546E-07     22.09    <-- DIS
     278      20.52929375      20.52929062       1.527E-07     22.17    <-- DIS
     279      20.52929367      20.52929057       1.508E-07     22.25    <-- DIS
     280      20.52929359      20.52929053       1.489E-07     22.33    <-- DIS
     281      20.52929350      20.52929049       1.471E-07     22.41    <-- DIS
     282      20.52929343      20.52929044       1.453E-07     22.49    <-- DIS
     283      20.52929335      20.52929040       1.434E-07     22.58    <-- DIS
     284      20.52929327      20.52929036       1.417E-07     22.66    <-- DIS
     285      20.52929320      20.52929032       1.399E-07     22.74    <-- DIS
     286      20.52929312      20.52929029       1.381E-07     22.82    <-- DIS
     287      20.52929305      20.52929025       1.364E-07     22.90    <-- DIS
     288      20.52929298      20.52929021       1.347E-07     22.98    <-- DIS
     289      20.52929291      20.52929018       1.330E-07     23.06    <-- DIS
     290      20.52929284      20.52929015       1.313E-07     23.14    <-- DIS
     291      20.52929278      20.52929011       1.296E-07     23.21    <-- DIS
     292      20.52929271      20.52929008       1.280E-07     23.29    <-- DIS
     293      20.52929265      20.52929005       1.264E-07     23.37    <-- DIS
     294      20.52929258      20.52929002       1.248E-07     23.45    <-- DIS
     295      20.52929252      20.52928999       1.232E-07     23.53    <-- DIS
     296      20.52929246      20.52928997       1.216E-07     23.61    <-- DIS
     297      20.52929240      20.52928994       1.201E-07     23.69    <-- DIS
     298      20.52929234      20.52928991       1.185E-07     23.77    <-- DIS
     299      20.52929229      20.52928989       1.170E-07     23.85    <-- DIS
     300      20.52929223      20.52928986       1.155E-07     23.93    <-- DIS
     301      20.52929218      20.52928984       1.140E-07     24.01    <-- DIS
     302      20.52929212      20.52928981       1.125E-07     24.09    <-- DIS
     303      20.52929207      20.52928979       1.111E-07     24.17    <-- DIS
     304      20.52929202      20.52928977       1.096E-07     24.25    <-- DIS
     305      20.52929197      20.52928975       1.082E-07     24.33    <-- DIS
     306      20.52929192      20.52928973       1.068E-07     24.41    <-- DIS
     307      20.52929187      20.52928970       1.054E-07     24.49    <-- DIS
     308      20.52929182      20.52928969       1.041E-07     24.57    <-- DIS
     309      20.52929177      20.52928967       1.027E-07     24.65    <-- DIS
     310      20.52929173      20.52928965       1.014E-07     24.73    <-- DIS
     311      20.52929168      20.52928963       1.000E-07     24.81    <-- DIS
     312      20.52929164      20.52928961       9.874E-08     24.89    <-- DIS
     313      20.52929159      20.52928959       9.745E-08     24.97    <-- DIS
     314      20.52929155      20.52928958       9.617E-08     25.05    <-- DIS
     315      20.52929151      20.52928956       9.491E-08     25.13    <-- DIS
     316      20.52929147      20.52928955       9.366E-08     25.21    <-- DIS
     317      20.52929143      20.52928953       9.243E-08     25.29    <-- DIS
     318      20.52929139      20.52928952       9.121E-08     25.36    <-- DIS
     319      20.52929135      20.52928950       9.000E-08     25.44    <-- DIS
     320      20.52929131      20.52928949       8.882E-08     25.52    <-- DIS
     321      20.52929127      20.52928947       8.764E-08     25.60    <-- DIS
     322      20.52929124      20.52928946       8.648E-08     25.68    <-- DIS
     323      20.52929120      20.52928945       8.534E-08     25.76    <-- DIS
     324      20.52929116      20.52928943       8.420E-08     25.84    <-- DIS
     325      20.52929113      20.52928942       8.309E-08     25.92    <-- DIS
     326      20.52929109      20.52928941       8.198E-08     26.00    <-- DIS
     327      20.52929106      20.52928940       8.089E-08     26.08    <-- DIS
     328      20.52929103      20.52928939       7.981E-08     26.16    <-- DIS
     329      20.52929099      20.52928938       7.875E-08     26.25    <-- DIS
     330      20.52929096      20.52928937       7.770E-08     26.34    <-- DIS
     331      20.52929093      20.52928936       7.666E-08     26.42    <-- DIS
     332      20.52929090      20.52928935       7.563E-08     26.50    <-- DIS
     333      20.52929087      20.52928934       7.462E-08     26.58    <-- DIS
     334      20.52929084      20.52928933       7.362E-08     26.66    <-- DIS
     335      20.52929081      20.52928932       7.263E-08     26.74    <-- DIS
     336      20.52929078      20.52928931       7.166E-08     26.82    <-- DIS
     337      20.52929075      20.52928930       7.070E-08     26.90    <-- DIS
     338      20.52929073      20.52928929       6.975E-08     26.98    <-- DIS
     339      20.52929070      20.52928929       6.881E-08     27.06    <-- DIS
     340      20.52929067      20.52928928       6.788E-08     27.14    <-- DIS
     341      20.52929064      20.52928927       6.697E-08     27.22    <-- DIS
     342      20.52929062      20.52928926       6.606E-08     27.30    <-- DIS
     343      20.52929059      20.52928926       6.517E-08     27.38    <-- DIS
     344      20.52929057      20.52928925       6.429E-08     27.46    <-- DIS
     345      20.52929054      20.52928924       6.342E-08     27.54    <-- DIS
     346      20.52929052      20.52928923       6.256E-08     27.62    <-- DIS
     347      20.52929050      20.52928923       6.172E-08     27.70    <-- DIS
     348      20.52929047      20.52928922       6.088E-08     27.78    <-- DIS
     349      20.52929045      20.52928922       6.005E-08     27.86    <-- DIS
     350      20.52929043      20.52928921       5.924E-08     27.93    <-- DIS
     351      20.52929040      20.52928920       5.843E-08     28.01    <-- DIS
     352      20.52929038      20.52928920       5.764E-08     28.09    <-- DIS
     353      20.52929036      20.52928919       5.686E-08     28.17    <-- DIS
     354      20.52929034      20.52928919       5.608E-08     28.25    <-- DIS
     355      20.52929032      20.52928918       5.532E-08     28.33    <-- DIS
     356      20.52929030      20.52928918       5.456E-08     28.41    <-- DIS
     357      20.52929028      20.52928917       5.382E-08     28.49    <-- DIS
     358      20.52929026      20.52928917       5.309E-08     28.57    <-- DIS
     359      20.52929024      20.52928916       5.236E-08     28.65    <-- DIS
     360      20.52929022      20.52928916       5.165E-08     28.73    <-- DIS
     361      20.52929020      20.52928916       5.094E-08     28.81    <-- DIS
     362      20.52929018      20.52928915       5.024E-08     28.89    <-- DIS
     363      20.52929016      20.52928915       4.955E-08     28.97    <-- DIS
     364      20.52929015      20.52928914       4.888E-08     29.05    <-- DIS
     365      20.52929013      20.52928914       4.821E-08     29.13    <-- DIS
     366      20.52929011      20.52928914       4.755E-08     29.21    <-- DIS
     367      20.52929009      20.52928913       4.689E-08     29.28    <-- DIS
     368      20.52929008      20.52928913       4.625E-08     29.36    <-- DIS
     369      20.52929006      20.52928913       4.561E-08     29.44    <-- DIS
     370      20.52929005      20.52928912       4.499E-08     29.52    <-- DIS
     371      20.52929003      20.52928912       4.437E-08     29.60    <-- DIS
     372      20.52929001      20.52928912       4.376E-08     29.68    <-- DIS
     373      20.52929000      20.52928911       4.316E-08     29.76    <-- DIS
     374      20.52928998      20.52928911       4.256E-08     29.84    <-- DIS
     375      20.52928997      20.52928911       4.198E-08     29.92    <-- DIS
     376      20.52928995      20.52928910       4.140E-08     30.01    <-- DIS
     377      20.52928994      20.52928910       4.083E-08     30.09    <-- DIS
     378      20.52928993      20.52928910       4.026E-08     30.18    <-- DIS
     379      20.52928991      20.52928910       3.971E-08     30.26    <-- DIS
     380      20.52928990      20.52928909       3.916E-08     30.35    <-- DIS
     381      20.52928988      20.52928909       3.862E-08     30.43    <-- DIS
     382      20.52928987      20.52928909       3.808E-08     30.51    <-- DIS
     383      20.52928986      20.52928909       3.756E-08     30.59    <-- DIS
     384      20.52928984      20.52928908       3.704E-08     30.67    <-- DIS
     385      20.52928983      20.52928908       3.653E-08     30.75    <-- DIS
     386      20.52928982      20.52928908       3.602E-08     30.83    <-- DIS
     387      20.52928981      20.52928908       3.552E-08     30.91    <-- DIS
     388      20.52928980      20.52928908       3.503E-08     30.99    <-- DIS
     389      20.52928978      20.52928907       3.454E-08     31.07    <-- DIS
     390      20.52928977      20.52928907       3.406E-08     31.15    <-- DIS
     391      20.52928976      20.52928907       3.359E-08     31.23    <-- DIS
     392      20.52928975      20.52928907       3.313E-08     31.31    <-- DIS
     393      20.52928974      20.52928907       3.267E-08     31.39    <-- DIS
     394      20.52928973      20.52928907       3.221E-08     31.48    <-- DIS
     395      20.52928972      20.52928906       3.176E-08     31.56    <-- DIS
     396      20.52928971      20.52928906       3.132E-08     31.64    <-- DIS
     397      20.52928969      20.52928906       3.089E-08     31.72    <-- DIS
     398      20.52928968      20.52928906       3.046E-08     31.80    <-- DIS
     399      20.52928967      20.52928906       3.003E-08     31.88    <-- DIS
     400      20.52928966      20.52928906       2.962E-08     31.95    <-- DIS
     401      20.52928965      20.52928905       2.920E-08     32.03    <-- DIS
     402      20.52928964      20.52928905       2.880E-08     32.11    <-- DIS
     403      20.52928964      20.52928905       2.840E-08     32.19    <-- DIS
     404      20.52928963      20.52928905       2.800E-08     32.27    <-- DIS
     405      20.52928962      20.52928905       2.761E-08     32.35    <-- DIS
     406      20.52928961      20.52928905       2.722E-08     32.43    <-- DIS
     407      20.52928960      20.52928905       2.684E-08     32.51    <-- DIS
     408      20.52928959      20.52928905       2.647E-08     32.59    <-- DIS
     409      20.52928958      20.52928905       2.610E-08     32.67    <-- DIS
     410      20.52928957      20.52928904       2.574E-08     32.75    <-- DIS
     411      20.52928956      20.52928904       2.538E-08     32.83    <-- DIS
     412      20.52928956      20.52928904       2.502E-08     32.91    <-- DIS
     413      20.52928955      20.52928904       2.467E-08     32.99    <-- DIS
     414      20.52928954      20.52928904       2.433E-08     33.07    <-- DIS
     415      20.52928953      20.52928904       2.399E-08     33.15    <-- DIS
     416      20.52928952      20.52928904       2.365E-08     33.23    <-- DIS
     417      20.52928952      20.52928904       2.332E-08     33.31    <-- DIS
     418      20.52928951      20.52928904       2.299E-08     33.39    <-- DIS
     419      20.52928950      20.52928904       2.267E-08     33.47    <-- DIS
     420      20.52928949      20.52928904       2.235E-08     33.55    <-- DIS
     421      20.52928949      20.52928903       2.204E-08     33.63    <-- DIS
     422      20.52928948      20.52928903       2.173E-08     33.71    <-- DIS
     423      20.52928947      20.52928903       2.143E-08     33.79    <-- DIS
     424      20.52928947      20.52928903       2.113E-08     33.86    <-- DIS
     425      20.52928946      20.52928903       2.083E-08     33.94    <-- DIS
     426      20.52928945      20.52928903       2.054E-08     34.02    <-- DIS
     427      20.52928945      20.52928903       2.025E-08     34.10    <-- DIS
     428      20.52928944      20.52928903       1.997E-08     34.18    <-- DIS
     429      20.52928943      20.52928903       1.969E-08     34.27    <-- DIS
     430      20.52928943      20.52928903       1.941E-08     34.35    <-- DIS
     431      20.52928942      20.52928903       1.914E-08     34.44    <-- DIS
     432      20.52928941      20.52928903       1.887E-08     34.52    <-- DIS
     433      20.52928941      20.52928903       1.860E-08     34.61    <-- DIS
     434      20.52928940      20.52928903       1.834E-08     34.69    <-- DIS
     435      20.52928940      20.52928903       1.808E-08     34.77    <-- DIS
     436      20.52928939      20.52928903       1.783E-08     34.85    <-- DIS
     437      20.52928939      20.52928902       1.758E-08     34.93    <-- DIS
     438      20.52928938      20.52928902       1.733E-08     35.01    <-- DIS
     439      20.52928937      20.52928902       1.709E-08     35.09    <-- DIS
     440      20.52928937      20.52928902       1.685E-08     35.17    <-- DIS
     441      20.52928936      20.52928902       1.661E-08     35.25    <-- DIS
     442      20.52928936      20.52928902       1.638E-08     35.33    <-- DIS
     443      20.52928935      20.52928902       1.615E-08     35.41    <-- DIS
     444      20.52928935      20.52928902       1.592E-08     35.49    <-- DIS
     445      20.52928934      20.52928902       1.570E-08     35.57    <-- DIS
     446      20.52928934      20.52928902       1.547E-08     35.65    <-- DIS
     447      20.52928933      20.52928902       1.526E-08     35.73    <-- DIS
     448      20.52928933      20.52928902       1.504E-08     35.81    <-- DIS
     449      20.52928932      20.52928902       1.483E-08     35.89    <-- DIS
     450      20.52928932      20.52928902       1.462E-08     35.97    <-- DIS
     451      20.52928932      20.52928902       1.441E-08     36.05    <-- DIS
     452      20.52928931      20.52928902       1.421E-08     36.13    <-- DIS
     453      20.52928931      20.52928902       1.401E-08     36.21    <-- DIS
     454      20.52928930      20.52928902       1.381E-08     36.29    <-- DIS
     455      20.52928930      20.52928902       1.362E-08     36.37    <-- DIS
     456      20.52928929      20.52928902       1.343E-08     36.45    <-- DIS
     457      20.52928929      20.52928902       1.324E-08     36.53    <-- DIS
     458      20.52928929      20.52928902       1.305E-08     36.61    <-- DIS
     459      20.52928928      20.52928902       1.287E-08     36.69    <-- DIS
     460      20.52928928      20.52928902       1.268E-08     36.77    <-- DIS
     461      20.52928927      20.52928902       1.251E-08     36.85    <-- DIS
     462      20.52928927      20.52928902       1.233E-08     36.93    <-- DIS
     463      20.52928927      20.52928902       1.215E-08     37.01    <-- DIS
     464      20.52928926      20.52928902       1.198E-08     37.09    <-- DIS
     465      20.52928926      20.52928902       1.181E-08     37.18    <-- DIS
     466      20.52928925      20.52928902       1.165E-08     37.26    <-- DIS
     467      20.52928925      20.52928902       1.148E-08     37.34    <-- DIS
     468      20.52928925      20.52928902       1.132E-08     37.42    <-- DIS
     469      20.52928924      20.52928901       1.116E-08     37.50    <-- DIS
     470      20.52928924      20.52928901       1.100E-08     37.58    <-- DIS
     471      20.52928924      20.52928901       1.085E-08     37.66    <-- DIS
     472      20.52928923      20.52928901       1.069E-08     37.74    <-- DIS
     473      20.52928923      20.52928901       1.054E-08     37.81    <-- DIS
     474      20.52928923      20.52928901       1.039E-08     37.89    <-- DIS
     475      20.52928922      20.52928901       1.025E-08     37.97    <-- DIS
     476      20.52928922      20.52928901       1.010E-08     38.05    <-- DIS
     477      20.52928922      20.52928901       9.958E-09     38.13    <-- DIS
     478      20.52928922      20.52928901       9.817E-09     38.21    <-- DIS
     479      20.52928921      20.52928901       9.679E-09     38.29    <-- DIS
     480      20.52928921      20.52928901       9.542E-09     38.37    <-- DIS
     481      20.52928921      20.52928901       9.406E-09     38.45    <-- DIS
     482      20.52928920      20.52928901       9.273E-09     38.53    <-- DIS
     483      20.52928920      20.52928901       9.142E-09     38.61    <-- DIS
     484      20.52928920      20.52928901       9.013E-09     38.69    <-- DIS
     485      20.52928919      20.52928901       8.885E-09     38.77    <-- DIS
     486      20.52928919      20.52928901       8.759E-09     38.85    <-- DIS
     487      20.52928919      20.52928901       8.635E-09     38.93    <-- DIS
     488      20.52928919      20.52928901       8.513E-09     39.01    <-- DIS
     489      20.52928918      20.52928901       8.392E-09     39.09    <-- DIS
     490      20.52928918      20.52928901       8.273E-09     39.17    <-- DIS
     491      20.52928918      20.52928901       8.156E-09     39.25    <-- DIS
     492      20.52928918      20.52928901       8.040E-09     39.33    <-- DIS
     493      20.52928917      20.52928901       7.927E-09     39.41    <-- DIS
     494      20.52928917      20.52928901       7.814E-09     39.49    <-- DIS
     495      20.52928917      20.52928901       7.703E-09     39.57    <-- DIS
     496      20.52928917      20.52928901       7.594E-09     39.65    <-- DIS
     497      20.52928917      20.52928901       7.487E-09     39.73    <-- DIS
     498      20.52928916      20.52928901       7.380E-09     39.81    <-- DIS
     499      20.52928916      20.52928901       7.276E-09     39.90    <-- DIS
     500      20.52928916      20.52928901       7.173E-09     39.98    <-- DIS
     501      20.52928916      20.52928901       7.071E-09     40.07    <-- DIS
     502      20.52928915      20.52928901       6.971E-09     40.15    <-- DIS
     503      20.52928915      20.52928901       6.872E-09     40.23    <-- DIS
     504      20.52928915      20.52928901       6.774E-09     40.31    <-- DIS
     505      20.52928915      20.52928901       6.678E-09     40.39    <-- DIS
     506      20.52928915      20.52928901       6.583E-09     40.47    <-- DIS
     507      20.52928914      20.52928901       6.490E-09     40.55    <-- DIS
     508      20.52928914      20.52928901       6.398E-09     40.63    <-- DIS
     509      20.52928914      20.52928901       6.307E-09     40.71    <-- DIS
     510      20.52928914      20.52928901       6.218E-09     40.79    <-- DIS
     511      20.52928914      20.52928901       6.129E-09     40.87    <-- DIS
     512      20.52928913      20.52928901       6.042E-09     40.95    <-- DIS
     513      20.52928913      20.52928901       5.956E-09     41.03    <-- DIS
     514      20.52928913      20.52928901       5.872E-09     41.11    <-- DIS
     515      20.52928913      20.52928901       5.789E-09     41.19    <-- DIS
     516      20.52928913      20.52928901       5.706E-09     41.27    <-- DIS
     517      20.52928913      20.52928901       5.625E-09     41.35    <-- DIS
     518      20.52928912      20.52928901       5.545E-09     41.43    <-- DIS
     519      20.52928912      20.52928901       5.467E-09     41.51    <-- DIS
     520      20.52928912      20.52928901       5.389E-09     41.59    <-- DIS
     521      20.52928912      20.52928901       5.312E-09     41.67    <-- DIS
     522      20.52928912      20.52928901       5.237E-09     41.75    <-- DIS
     523      20.52928912      20.52928901       5.163E-09     41.83    <-- DIS
     524      20.52928911      20.52928901       5.089E-09     41.91    <-- DIS
     525      20.52928911      20.52928901       5.017E-09     41.99    <-- DIS
     526      20.52928911      20.52928901       4.946E-09     42.07    <-- DIS
     527      20.52928911      20.52928901       4.875E-09     42.15    <-- DIS
     528      20.52928911      20.52928901       4.806E-09     42.23    <-- DIS
     529      20.52928911      20.52928901       4.738E-09     42.30    <-- DIS
     530      20.52928911      20.52928901       4.670E-09     42.39    <-- DIS
     531      20.52928910      20.52928901       4.604E-09     42.46    <-- DIS
     532      20.52928910      20.52928901       4.539E-09     42.54    <-- DIS
     533      20.52928910      20.52928901       4.474E-09     42.62    <-- DIS
     534      20.52928910      20.52928901       4.411E-09     42.70    <-- DIS
     535      20.52928910      20.52928901       4.348E-09     42.78    <-- DIS
     536      20.52928910      20.52928901       4.286E-09     42.86    <-- DIS
     537      20.52928910      20.52928901       4.225E-09     42.94    <-- DIS
     538      20.52928909      20.52928901       4.165E-09     43.02    <-- DIS
     539      20.52928909      20.52928901       4.106E-09     43.10    <-- DIS
     540      20.52928909      20.52928901       4.047E-09     43.18    <-- DIS
     541      20.52928909      20.52928901       3.990E-09     43.26    <-- DIS
     542      20.52928909      20.52928901       3.933E-09     43.34    <-- DIS
     543      20.52928909      20.52928901       3.877E-09     43.42    <-- DIS
     544      20.52928909      20.52928901       3.822E-09     43.50    <-- DIS
     545      20.52928909      20.52928901       3.768E-09     43.58    <-- DIS
     546      20.52928909      20.52928901       3.714E-09     43.66    <-- DIS
     547      20.52928908      20.52928901       3.661E-09     43.74    <-- DIS
     548      20.52928908      20.52928901       3.609E-09     43.82    <-- DIS
     549      20.52928908      20.52928901       3.558E-09     43.89    <-- DIS
     550      20.52928908      20.52928901       3.507E-09     43.97    <-- DIS
     551      20.52928908      20.52928901       3.457E-09     44.06    <-- DIS
     552      20.52928908      20.52928901       3.408E-09     44.14    <-- DIS
     553      20.52928908      20.52928901       3.360E-09     44.22    <-- DIS
     554      20.52928908      20.52928901       3.312E-09     44.30    <-- DIS
     555      20.52928908      20.52928901       3.265E-09     44.38    <-- DIS
     556      20.52928908      20.52928901       3.218E-09     44.47    <-- DIS
     557      20.52928907      20.52928901       3.172E-09     44.55    <-- DIS
     558      20.52928907      20.52928901       3.127E-09     44.64    <-- DIS
     559      20.52928907      20.52928901       3.083E-09     44.72    <-- DIS
     560      20.52928907      20.52928901       3.039E-09     44.80    <-- DIS
     561      20.52928907      20.52928901       2.996E-09     44.88    <-- DIS
     562      20.52928907      20.52928901       2.953E-09     44.96    <-- DIS
     563      20.52928907      20.52928901       2.911E-09     45.04    <-- DIS
     564      20.52928907      20.52928901       2.870E-09     45.13    <-- DIS
     565      20.52928907      20.52928901       2.829E-09     45.21    <-- DIS
     566      20.52928907      20.52928901       2.788E-09     45.28    <-- DIS
     567      20.52928907      20.52928901       2.749E-09     45.37    <-- DIS
     568      20.52928906      20.52928901       2.710E-09     45.45    <-- DIS
     569      20.52928906      20.52928901       2.671E-09     45.53    <-- DIS
     570      20.52928906      20.52928901       2.633E-09     45.60    <-- DIS
     571      20.52928906      20.52928901       2.595E-09     45.69    <-- DIS
     572      20.52928906      20.52928901       2.559E-09     45.77    <-- DIS
     573      20.52928906      20.52928901       2.522E-09     45.85    <-- DIS
     574      20.52928906      20.52928901       2.486E-09     45.93    <-- DIS
     575      20.52928906      20.52928901       2.451E-09     46.01    <-- DIS
     576      20.52928906      20.52928901       2.416E-09     46.09    <-- DIS
     577      20.52928906      20.52928901       2.381E-09     46.17    <-- DIS
     578      20.52928906      20.52928901       2.348E-09     46.25    <-- DIS
     579      20.52928906      20.52928901       2.314E-09     46.33    <-- DIS
     580      20.52928906      20.52928901       2.281E-09     46.41    <-- DIS
     581      20.52928905      20.52928901       2.249E-09     46.48    <-- DIS
     582      20.52928905      20.52928901       2.217E-09     46.56    <-- DIS
     583      20.52928905      20.52928901       2.185E-09     46.64    <-- DIS
     584      20.52928905      20.52928901       2.154E-09     46.72    <-- DIS
     585      20.52928905      20.52928901       2.123E-09     46.80    <-- DIS
     586      20.52928905      20.52928901       2.093E-09     46.88    <-- DIS
     587      20.52928905      20.52928901       2.063E-09     46.96    <-- DIS
     588      20.52928905      20.52928901       2.034E-09     47.04    <-- DIS
     589      20.52928905      20.52928901       2.005E-09     47.13    <-- DIS
     590      20.52928905      20.52928901       1.976E-09     47.21    <-- DIS
     591      20.52928905      20.52928901       1.948E-09     47.29    <-- DIS
     592      20.52928905      20.52928901       1.920E-09     47.37    <-- DIS
     593      20.52928905      20.52928901       1.893E-09     47.45    <-- DIS
     594      20.52928905      20.52928901       1.866E-09     47.53    <-- DIS
     595      20.52928905      20.52928901       1.839E-09     47.61    <-- DIS
     596      20.52928905      20.52928901       1.813E-09     47.69    <-- DIS
     597      20.52928905      20.52928901       1.787E-09     47.77    <-- DIS
     598      20.52928904      20.52928901       1.762E-09     47.84    <-- DIS
     599      20.52928904      20.52928901       1.737E-09     47.92    <-- DIS
     600      20.52928904      20.52928901       1.712E-09     48.00    <-- DIS
     601      20.52928904      20.52928901       1.688E-09     48.08    <-- DIS
     602      20.52928904      20.52928901       1.664E-09     48.16    <-- DIS
     603      20.52928904      20.52928901       1.640E-09     48.24    <-- DIS
     604      20.52928904      20.52928901       1.617E-09     48.32    <-- DIS
     605      20.52928904      20.52928901       1.594E-09     48.40    <-- DIS
     606      20.52928904      20.52928901       1.571E-09     48.48    <-- DIS
     607      20.52928904      20.52928901       1.548E-09     48.56    <-- DIS
     608      20.52928904      20.52928901       1.526E-09     48.64    <-- DIS
[...]
    1309      20.52928901      20.52928901       6.617E-14    105.27    <-- DIS
    1310      20.52928901      20.52928901       6.373E-14    105.35    <-- DIS
    1311      20.52928901      20.52928901       6.439E-14    105.42    <-- DIS
    1312      20.52928901      20.52928901       6.084E-14    105.50    <-- DIS
    1313      20.52928901      20.52928901       6.350E-14    105.58    <-- DIS
    1314      20.52928901      20.52928901       6.151E-14    105.66    <-- DIS
    1315      20.52928901      20.52928901       5.973E-14    105.74    <-- DIS
    1316      20.52928901      20.52928901       6.040E-14    105.83    <-- DIS
    1317      20.52928901      20.52928901       5.618E-14    105.91    <-- DIS
    1318      20.52928901      20.52928901       5.773E-14    106.00    <-- DIS
    1319      20.52928901      20.52928901       5.418E-14    106.08    <-- DIS
    1320      20.52928901      20.52928901       5.285E-14    106.17    <-- DIS
    1321      20.52928901      20.52928901       5.485E-14    106.25    <-- DIS
    1322      20.52928901      20.52928901       4.907E-14    106.33    <-- DIS
    1323      20.52928901      20.52928901       5.129E-14    106.41    <-- DIS
    1324      20.52928901      20.52928901       5.285E-14    106.50    <-- DIS
    1325      20.52928901      20.52928901       4.841E-14    106.59    <-- DIS
    1326      20.52928901      20.52928901       4.907E-14    106.67    <-- DIS
    1327      20.52928901      20.52928901       5.440E-14    106.75    <-- DIS
    1328      20.52928901      20.52928901       4.863E-14    106.84    <-- DIS
    1329      20.52928901      20.52928901       5.151E-14    106.92    <-- DIS
    1330      20.52928901      20.52928901       4.285E-14    107.00    <-- DIS
    1331      20.52928901      20.52928901       4.974E-14    107.08    <-- DIS
    1332      20.52928901      20.52928901       4.596E-14    107.16    <-- DIS
    1333      20.52928901      20.52928901       4.152E-14    107.24    <-- DIS
    1334      20.52928901      20.52928901       4.263E-14    107.32    <-- DIS
    1335      20.52928901      20.52928901       4.552E-14    107.40    <-- DIS
    1336      20.52928901      20.52928901       4.197E-14    107.48    <-- DIS
    1337      20.52928901      20.52928901       4.241E-14    107.57    <-- DIS
    1338      20.52928901      20.52928901       4.197E-14    107.65    <-- DIS
    1339      20.52928901      20.52928901       3.730E-14    107.73    <-- DIS
    1340      20.52928901      20.52928901       3.730E-14    107.81    <-- DIS
    1341      20.52928901      20.52928901       3.797E-14    107.89    <-- DIS
    1342      20.52928901      20.52928901       3.864E-14    107.97    <-- DIS
    1343      20.52928901      20.52928901       4.041E-14    108.05    <-- DIS
    1344      20.52928901      20.52928901       4.063E-14    108.13    <-- DIS
    1345      20.52928901      20.52928901       3.664E-14    108.21    <-- DIS
    1346      20.52928901      20.52928901       4.086E-14    108.28    <-- DIS
    1347      20.52928901      20.52928901       3.575E-14    108.36    <-- DIS
    1348      20.52928901      20.52928901       3.642E-14    108.44    <-- DIS
    1349      20.52928901      20.52928901       4.041E-14    108.53    <-- DIS
    1350      20.52928901      20.52928901       3.308E-14    108.61    <-- DIS
    1351      20.52928901      20.52928901       3.753E-14    108.69    <-- DIS
    1352      20.52928901      20.52928901       3.841E-14    108.77    <-- DIS
    1353      20.52928901      20.52928901       3.220E-14    108.85    <-- DIS
    1354      20.52928901      20.52928901       3.486E-14    108.93    <-- DIS
    1355      20.52928901      20.52928901       3.220E-14    109.01    <-- DIS
    1356      20.52928901      20.52928901       3.553E-14    109.09    <-- DIS
    1357      20.52928901      20.52928901       3.197E-14    109.17    <-- DIS
    1358      20.52928901      20.52928901       3.531E-14    109.25    <-- DIS
    1359      20.52928901      20.52928901       3.131E-14    109.33    <-- DIS
    1360      20.52928901      20.52928901       3.086E-14    109.41    <-- DIS
    1361      20.52928901      20.52928901       3.308E-14    109.49    <-- DIS
    1362      20.52928901      20.52928901       3.064E-14    109.57    <-- DIS
    1363      20.52928901      20.52928901       2.864E-14    109.65    <-- DIS
    1364      20.52928901      20.52928901       3.109E-14    109.72    <-- DIS
    1365      20.52928901      20.52928901       2.487E-14    109.80    <-- DIS
    1366      20.52928901      20.52928901       2.909E-14    109.88    <-- DIS
    1367      20.52928901      20.52928901       3.308E-14    109.96    <-- DIS
    1368      20.52928901      20.52928901       2.442E-14    110.04    <-- DIS
    1369      20.52928901      20.52928901       2.953E-14    110.12    <-- DIS
    1370      20.52928901      20.52928901       2.820E-14    110.20    <-- DIS
    1371      20.52928901      20.52928901       2.842E-14    110.28    <-- DIS
    1372      20.52928901      20.52928901       2.531E-14    110.36    <-- DIS
    1373      20.52928901      20.52928901       2.554E-14    110.44    <-- DIS
    1374      20.52928901      20.52928901       2.309E-14    110.52    <-- DIS
    1375      20.52928901      20.52928901       2.243E-14    110.60    <-- DIS
    1376      20.52928901      20.52928901       2.487E-14    110.68    <-- DIS
    1377      20.52928901      20.52928901       2.709E-14    110.76    <-- DIS
    1378      20.52928901      20.52928901       2.243E-14    110.84    <-- DIS
    1379      20.52928901      20.52928901       2.554E-14    110.92    <-- DIS
    1380      20.52928901      20.52928901       2.309E-14    111.00    <-- DIS
    1381      20.52928901      20.52928901       2.709E-14    111.08    <-- DIS
    1382      20.52928901      20.52928901       2.087E-14    111.16    <-- DIS
    1383      20.52928901      20.52928901       1.998E-14    111.24    <-- DIS
    1384      20.52928901      20.52928901       2.576E-14    111.32    <-- DIS
    1385      20.52928901      20.52928901       2.465E-14    111.40    <-- DIS
    1386      20.52928901      20.52928901       1.998E-14    111.48    <-- DIS
    1387      20.52928901      20.52928901       2.287E-14    111.55    <-- DIS
    1388      20.52928901      20.52928901       2.132E-14    111.63    <-- DIS
    1389      20.52928901      20.52928901       2.331E-14    111.71    <-- DIS
    1390      20.52928901      20.52928901       2.065E-14    111.79    <-- DIS
    1391      20.52928901      20.52928901       2.043E-14    111.87    <-- DIS
    1392      20.52928901      20.52928901       2.109E-14    111.95    <-- DIS
    1393      20.52928901      20.52928901       1.998E-14    112.03    <-- DIS
    1394      20.52928901      20.52928901       1.799E-14    112.11    <-- DIS
    1395      20.52928901      20.52928901       1.998E-14    112.19    <-- DIS
    1396      20.52928901      20.52928901       1.932E-14    112.27    <-- DIS
    1397      20.52928901      20.52928901       2.287E-14    112.35    <-- DIS
    1398      20.52928901      20.52928901       1.643E-14    112.43    <-- DIS
    1399      20.52928901      20.52928901       1.754E-14    112.51    <-- DIS
    1400      20.52928901      20.52928901       1.932E-14    112.59    <-- DIS
    1401      20.52928901      20.52928901       1.998E-14    112.67    <-- DIS
    1402      20.52928901      20.52928901       1.688E-14    112.75    <-- DIS
    1403      20.52928901      20.52928901       1.599E-14    112.83    <-- DIS
    1404      20.52928901      20.52928901       1.332E-14    112.91    <-- DIS
    1405      20.52928901      20.52928901       2.065E-14    112.99    <-- DIS
    1406      20.52928901      20.52928901       1.221E-14    113.06    <-- DIS
    1407      20.52928901      20.52928901       1.488E-14    113.14    <-- DIS
    1408      20.52928901      20.52928901       1.554E-14    113.22    <-- DIS
    1409      20.52928901      20.52928901       1.443E-14    113.30    <-- DIS
    1410      20.52928901      20.52928901       1.221E-14    113.38    <-- DIS
    1411      20.52928901      20.52928901       1.332E-14    113.46    <-- DIS
    1412      20.52928901      20.52928901       9.992E-15    113.54    <-- DIS
    1413      20.52928901      20.52928901       1.155E-14    113.62    <-- DIS
    1414      20.52928901      20.52928901       1.377E-14    113.70    <-- DIS
    1415      20.52928901      20.52928901       1.110E-14    113.78    <-- DIS
    1416      20.52928901      20.52928901       1.710E-14    113.86    <-- DIS
    1417      20.52928901      20.52928901       1.510E-14    113.94    <-- DIS
    1418      20.52928901      20.52928901       1.199E-14    114.02    <-- DIS
    1419      20.52928901      20.52928901       1.132E-14    114.10    <-- DIS
    1420      20.52928901      20.52928901       1.310E-14    114.18    <-- DIS
    1421      20.52928901      20.52928901       1.532E-14    114.26    <-- DIS
    1422      20.52928901      20.52928901       1.177E-14    114.34    <-- DIS
    1423      20.52928901      20.52928901       1.377E-14    114.42    <-- DIS
    1424      20.52928901      20.52928901       1.288E-14    114.50    <-- DIS
    1425      20.52928901      20.52928901       1.443E-14    114.58    <-- DIS
    1426      20.52928901      20.52928901       1.243E-14    114.66    <-- DIS
    1427      20.52928901      20.52928901       1.132E-14    114.73    <-- DIS
    1428      20.52928901      20.52928901       1.288E-14    114.82    <-- DIS
    1429      20.52928901      20.52928901       1.132E-14    114.90    <-- DIS
    1430      20.52928901      20.52928901       1.377E-14    114.99    <-- DIS
    1431      20.52928901      20.52928901       1.377E-14    115.07    <-- DIS
    1432      20.52928901      20.52928901       1.465E-14    115.16    <-- DIS
    1433      20.52928901      20.52928901       9.992E-15    115.24    <-- DIS
    1434      20.52928901      20.52928901       8.660E-15    115.32    <-- DIS
    1435      20.52928901      20.52928901       1.066E-14    115.40    <-- DIS
    1436      20.52928901      20.52928901       9.770E-15    115.49    <-- DIS
    1437      20.52928901      20.52928901       1.199E-14    115.57    <-- DIS
    1438      20.52928901      20.52928901       1.266E-14    115.65    <-- DIS
    1439      20.52928901      20.52928901       1.044E-14    115.74    <-- DIS
    1440      20.52928901      20.52928901       1.066E-14    115.82    <-- DIS
    1441      20.52928901      20.52928901       8.660E-15    115.90    <-- DIS
    1442      20.52928901      20.52928901       1.110E-14    115.98    <-- DIS
    1443      20.52928901      20.52928901       1.066E-14    116.06    <-- DIS
    1444      20.52928901      20.52928901       9.104E-15    116.14    <-- DIS
    1445      20.52928901      20.52928901       1.221E-14    116.22    <-- DIS
    1446      20.52928901      20.52928901       9.104E-15    116.30    <-- DIS
    1447      20.52928901      20.52928901       8.216E-15    116.38    <-- DIS
    1448      20.52928901      20.52928901       1.132E-14    116.46    <-- DIS
    1449      20.52928901      20.52928901       8.216E-15    116.54    <-- DIS
    1450      20.52928901      20.52928901       9.770E-15    116.62    <-- DIS
    1451      20.52928901      20.52928901       1.088E-14    116.70    <-- DIS
    1452      20.52928901      20.52928901       5.773E-15    116.78    <-- DIS
    1453      20.52928901      20.52928901       1.221E-14    116.86    <-- DIS
    1454      20.52928901      20.52928901       6.883E-15    116.94    <-- DIS
    1455      20.52928901      20.52928901       5.107E-15    117.03    <-- DIS
    1456      20.52928901      20.52928901       5.329E-15    117.10    <-- DIS

             <<<      Delta < 1.000E-14  over  3 iterations     >>>
             <<< Disentanglement convergence criteria satisfied >>>

        Final Omega_I    20.52928901 (Ang^2)

 +----------------------------------------------------------------------------+


 Writing checkpoint file wannier90.chk... done

 Time to disentangle          117.410 (sec)

 *------------------------------- WANNIERISE ---------------------------------*
 +--------------------------------------------------------------------+<-- CONV
 | Iter  Delta Spread     RMS Gradient      Spread (Ang^2)      Time  |<-- CONV
 +--------------------------------------------------------------------+<-- CONV

 ------------------------------------------------------------------------------
 Initial State
  WF centre and spread    1  ( -1.959999, -1.959999, -1.654999 )     0.70116718
  WF centre and spread    2  ( -0.000000, -0.000000, -0.000000 )     2.93201202
  WF centre and spread    3  (  0.000000, -0.000000, -0.000000 )     2.94989337
  WF centre and spread    4  ( -1.959999, -1.959999, -1.654999 )     0.52230590
  WF centre and spread    5  ( -1.959999, -1.959999, -1.654999 )     0.49747485
  WF centre and spread    6  ( -1.959999, -1.959999, -1.654999 )     0.49747485
  WF centre and spread    7  ( -1.959999, -1.959999, -1.654999 )     0.45037385
  WF centre and spread    8  ( -0.000000, -1.959999, -1.654999 )     0.84332228
  WF centre and spread    9  (  0.000000, -1.959999, -1.654999 )     0.82952588
  WF centre and spread   10  ( -0.000000, -1.959999, -1.654999 )     0.94238765
  WF centre and spread   11  ( -1.959999, -0.000000, -1.654999 )     0.84332228
  WF centre and spread   12  ( -1.959999, -0.000000, -1.654999 )     0.94238765
  WF centre and spread   13  ( -1.959999, -0.000000, -1.654999 )     0.82952588
  WF centre and spread   14  ( -0.000000, -0.000000, -0.000000 )     2.40819199
  WF centre and spread   15  ( -0.000000, -0.000000, -0.000000 )     2.40819199
  WF centre and spread   16  ( -0.000000, -0.000000, -0.000000 )     2.76613573
  Sum of centres and spreads (-15.679992,-15.679992,-18.204989 )    21.36369334

      0     0.214E+02     0.0000000000       21.3636933414     117.32  <-- CONV
        O_D=      0.0000000 O_OD=      0.8344043 O_TOT=     21.3636933 <-- SPRD
 ------------------------------------------------------------------------------
 Cycle:      1
  WF centre and spread    1  ( -1.959999, -1.959999, -1.654999 )     0.69861317
  WF centre and spread    2  ( -0.000000, -0.000000, -0.000000 )     2.92091501
  WF centre and spread    3  (  0.000000, -0.000000, -0.000000 )     2.93825765
  WF centre and spread    4  ( -1.959999, -1.959999, -1.654999 )     0.51993518
  WF centre and spread    5  ( -1.959999, -1.959999, -1.654999 )     0.49654234
  WF centre and spread    6  ( -1.959999, -1.959999, -1.654999 )     0.49654234
  WF centre and spread    7  ( -1.959999, -1.959999, -1.654999 )     0.45029419
  WF centre and spread    8  ( -0.000000, -1.959999, -1.654999 )     0.83872937
  WF centre and spread    9  (  0.000000, -1.959999, -1.654999 )     0.82849023
  WF centre and spread   10  ( -0.000000, -1.959999, -1.654999 )     0.94220408
  WF centre and spread   11  ( -1.959999, -0.000000, -1.654999 )     0.83872937
  WF centre and spread   12  ( -1.959999, -0.000000, -1.654999 )     0.94220408
  WF centre and spread   13  ( -1.959999, -0.000000, -1.654999 )     0.82849023
  WF centre and spread   14  ( -0.000000, -0.000000, -0.000000 )     2.40054498
  WF centre and spread   15  ( -0.000000, -0.000000, -0.000000 )     2.40054498
  WF centre and spread   16  ( -0.000000, -0.000000, -0.000000 )     2.75730627
  Sum of centres and spreads (-15.679992,-15.679992,-18.204989 )    21.29834348

      1    -0.653E-01     0.1919870865       21.2983434751     117.45  <-- CONV
        O_D=      0.0000000 O_OD=      0.7690545 O_TOT=     21.2983435 <-- SPRD
 Delta: O_D=  0.2742967E-20 O_OD= -0.6534987E-01 O_TOT= -0.6534987E-01 <-- DLTA
 ------------------------------------------------------------------------------
 Cycle:    100
  WF centre and spread    1  ( -1.959999, -1.959999, -1.654999 )     0.70335410
  WF centre and spread    2  ( -0.000000, -0.000000, -0.000000 )     2.89827088
  WF centre and spread    3  (  0.000000, -0.000000, -0.000000 )     2.92402708
  WF centre and spread    4  ( -1.959999, -1.959999, -1.654999 )     0.51925314
  WF centre and spread    5  ( -1.959999, -1.959999, -1.654999 )     0.49783547
  WF centre and spread    6  ( -1.959999, -1.959999, -1.654999 )     0.49783547
  WF centre and spread    7  ( -1.959999, -1.959999, -1.654999 )     0.45070395
  WF centre and spread    8  ( -0.000000, -1.959999, -1.654999 )     0.84073591
  WF centre and spread    9  (  0.000000, -1.959999, -1.654999 )     0.82763517
  WF centre and spread   10  ( -0.000000, -1.959999, -1.654999 )     0.95441060
  WF centre and spread   11  ( -1.959999, -0.000000, -1.654999 )     0.84073591
  WF centre and spread   12  ( -1.959999, -0.000000, -1.654999 )     0.95441060
  WF centre and spread   13  ( -1.959999, -0.000000, -1.654999 )     0.82763517
  WF centre and spread   14  ( -0.000000, -0.000000, -0.000000 )     2.36301216
  WF centre and spread   15  ( -0.000000, -0.000000, -0.000000 )     2.36301216
  WF centre and spread   16  ( -0.000000, -0.000000, -0.000000 )     2.73017844
  Sum of centres and spreads (-15.679992,-15.679992,-18.204989 )    21.19304622

    100    -0.187E-10     0.0000103634       21.1930462232     128.79  <-- CONV
        O_D=      0.0000000 O_OD=      0.6637572 O_TOT=     21.1930462 <-- SPRD
 Delta: O_D= -0.1047611E-27 O_OD= -0.1865674E-10 O_TOT= -0.1865530E-10 <-- DLTA
 ------------------------------------------------------------------------------

 Writing checkpoint file wannier90.chk... done


             <<<     Delta < 1.000E-10  over 50 iterations     >>>
             <<< Wannierisation convergence criteria satisfied >>>

 Final State
  WF centre and spread    1  ( -1.959999, -1.959999, -1.654999 )     0.70335478
  WF centre and spread    2  ( -0.000000, -0.000000, -0.000000 )     2.89827088
  WF centre and spread    3  (  0.000000, -0.000000, -0.000000 )     2.92402724
  WF centre and spread    4  ( -1.959999, -1.959999, -1.654999 )     0.51925345
  WF centre and spread    5  ( -1.959999, -1.959999, -1.654999 )     0.49783547
  WF centre and spread    6  ( -1.959999, -1.959999, -1.654999 )     0.49783547
  WF centre and spread    7  ( -1.959999, -1.959999, -1.654999 )     0.45070396
  WF centre and spread    8  ( -0.000000, -1.959999, -1.654999 )     0.84073585
  WF centre and spread    9  (  0.000000, -1.959999, -1.654999 )     0.82763475
  WF centre and spread   10  ( -0.000000, -1.959999, -1.654999 )     0.95441063
  WF centre and spread   11  ( -1.959999, -0.000000, -1.654999 )     0.84073585
  WF centre and spread   12  ( -1.959999, -0.000000, -1.654999 )     0.95441063
  WF centre and spread   13  ( -1.959999, -0.000000, -1.654999 )     0.82763475
  WF centre and spread   14  ( -0.000000, -0.000000, -0.000000 )     2.36301204
  WF centre and spread   15  ( -0.000000, -0.000000, -0.000000 )     2.36301204
  WF centre and spread   16  ( -0.000000, -0.000000, -0.000000 )     2.73017844
  Sum of centres and spreads (-15.679992,-15.679992,-18.204989 )    21.19304622

         Spreads (Ang^2)       Omega I      =    20.529289008
        ================       Omega D      =     0.000000000
                               Omega OD     =     0.663757214
    Final Spread (Ang^2)       Omega Total  =    21.193046223
 ------------------------------------------------------------------------------

 Writing checkpoint file wannier90.chk... done

 Time for wannierise           17.028 (sec)
 *---------------------------------------------------------------------------*
 |                               PLOTTING                                    |
 *---------------------------------------------------------------------------*


 Calculating interpolated band-structure

 Time to calculate interpolated band structure      12.090 (sec)

 Exiting.......
 plot_wannier: file UNK00001.1  not found
